23
Lattice="100.0 0.0 0.0 0.0 100.0 0.0 0.0 0.0 100.0" Properties=species:S:1:pos:R:3:molID:I:1:forces:R:3 Nmols=2 Comp=EMC(1):VC(1) energy=-1208.8462931691226 pbc="T T T"
C        1.40669906      -0.94852668       1.34895813        0       2.20930683      -1.29766987       1.24439966
O        2.40962720      -1.28579569       1.94060218        0      -0.73745217      -0.19327150       1.35726591
O        0.12933208      -1.04362166       1.73212218        0       1.10326894       0.23834379      -1.43759888
O        1.47688103      -0.50123066       0.16977718        0      -1.32502260       1.92532183      -4.60502748
C       -0.04094892      -1.35957861       3.04710722        0      -3.00695313      -4.49406765       2.69148288
C        2.63086009      -0.44012067      -0.69729584        0       0.00302149      -0.07250245       1.06719252
C       -1.63370895      -1.50622070       3.27897310        0       1.27618252       2.96649189      -6.51275648
H        0.40394607      -2.40141869       3.38785219        0      -1.37414981       1.79674403      -1.46206811
H        0.45089409      -0.68009967       3.66465807        0       1.16037757       2.14414885       1.12241827
H        3.36547112       0.15588234      -0.10162982        0      -0.31274012      -0.68412650      -1.04330705
H        2.91504097      -1.48023367      -0.91267079        0       0.27837061       0.45482372       0.46871821
H       -1.94975197      -1.75659466       4.21205616        0      -0.71019375      -1.20497207       2.14679099
H       -2.05149293      -0.44585866       3.06940317        0       0.96733294      -1.83685787       0.96047589
H       -1.99269390      -2.01510978       2.26033020        0       0.48252484       0.15555799       3.19622635
H        2.40328908      -0.00330166      -1.68040287        0      -0.35036014       0.30780494       0.62334390
C       -1.72449291       1.32071137      -0.47724482        1      -2.96351714      -1.51964655       0.90120861
O       -0.49731091       1.17084932      -0.94350183        1       2.58808643       0.69515674       1.02541639
C       -0.59555292       1.32678330      -2.25614190        1       4.95659666      -0.78487262      -4.00015105
O       -1.80939388       1.20327735      -2.66971779        1      -3.31314834      -0.32008129       0.70051018
C       -2.54717183       0.93277031      -1.49749577        1      -2.21896682       2.31866224      -1.82367560
O        0.29996908       1.35905635      -3.09270382        1      -1.34663509       0.02820248       2.94786827
H       -3.61379600       1.21128833      -1.72711182        1       1.87612753      -1.04547089       0.76464382
H       -1.99838686       1.11892533       0.56570417        1       0.75794278       0.42228076      -0.33337719
23
Lattice="100.0 0.0 0.0 0.0 100.0 0.0 0.0 0.0 100.0" Properties=species:S:1:pos:R:3:molID:I:1:forces:R:3 Nmols=2 Comp=EMC(1):VC(1) energy=-1208.1085531732854 pbc="T T T"
C       -0.69763237       2.77908134       1.23040593        0      -4.91619959       5.56593811       0.65186925
O        0.41091162       2.90825939       0.90179396        0       4.18233952      -2.29462046      -0.98561153
O       -1.54747343       1.82928336       1.18552589        0      -0.82228295       0.13049984       0.54765958
O       -1.47622144       3.99724841       1.42502689        0       1.65704776      -3.20979344      -0.15386558
C       -1.05164540       0.55792034       1.01647294        0       2.89145982      -2.10165785       0.58556293
C       -0.58076239       5.05312920       1.23254991        0      -0.40768658       1.37784015       1.41823616
C       -2.08044529      -0.48666269       1.21495795        0      -0.29758062      -1.61304239       1.38921052
H       -0.58454442       0.48634732       0.04012394        0      -0.13235582      -0.45456410      -1.60510550
H       -0.13467740       0.35334331       1.69473493        0      -1.34692557      -0.30890272       0.12235681
H       -0.06260440       5.23490810       2.17521095        0       0.23635175       0.34304384       0.59078676
H        0.14888860       4.83289528       0.50576496        0       0.82157445      -0.09083208      -1.00882044
H       -1.73312235      -1.46158373       0.79107195        0       0.12043514       0.66064434       0.99056204
H       -2.35824633      -0.45531067       2.34884787        0       0.17612381      -0.49715954      -1.90404540
H       -2.94100738      -0.36219668       0.61415994        0      -0.89576453       0.77057705      -0.06105870
H       -1.12611735       5.90846729       0.99187595        0      -1.26653658       1.72202924      -0.57773688
C       -0.08214340      -3.62099671      -1.75664902        1       4.00193314      -1.08306805       0.93217531
O        0.70271158      -2.58156061      -2.27889895        1      -4.74390123      -0.45111855      -0.35613574
C        1.51702058      -2.24412274      -1.30315304        1       2.17225969      -4.59757289      -1.36999695
O        1.84426665      -3.32881665      -0.58488607        1      -4.25845322      -3.37717388       0.17721899
C        0.80931163      -4.41899586      -1.06022000        1       1.76662916       3.70295167       1.81164707
O        2.26134372      -1.36615074      -1.48889709        1       2.14339221       4.42002256       0.62457311
H        0.68980759      -5.35269451      -0.45185906        1       0.11228389       1.36063660      -0.95194099
H       -0.94944340      -3.98191357      -2.21206117        1      -1.19414365       0.02532255      -0.86754081
22
Lattice="100.0 0.0 0.0 0.0 100.0 0.0 0.0 0.0 100.0" Properties=species:S:1:pos:R:3:molID:I:1:forces:R:3 Nmols=2 Comp=DMC(1):EC(1) energy=-1152.582419060233 pbc="T T T"
C        3.61284208      -2.07550406       0.22518750        0      -2.10916144      -1.48716252      -1.70294305
C        3.75244713      -3.59650588       0.06730349        0       0.82956170       0.42410585      -1.06170572
O        3.49376106      -3.82976699      -1.34206152        0       0.64507763       0.35744094       0.81862214
C        3.66125512      -2.66054893      -1.99677956        0      -1.94032480      -0.87986468      -1.62855758
O        3.62495208      -2.64322686      -3.21021342        0       0.55379146       0.43194298       2.16823783
O        3.58672094      -1.63819695      -1.13761151        0       1.02616419       0.88195953      -0.30672104
H        2.69311810      -1.68178594       0.65247649        0      -0.51792466      -0.07307469       0.09823141
H        4.39196014      -1.77501500       0.83347249        0       2.26792866       1.33607096       1.09477364
H        4.79914284      -3.87108588       0.18849850        0       0.80945611      -0.11392818      -0.01181292
H        3.20638895      -4.23945999       0.70763350        0      -1.56456885      -0.87749018       0.53187528
C       -3.46759295       0.39978606       1.80026948        1       0.97695892       0.55030409       0.27237650
O       -2.97357607       1.54546702       1.06417453        1      -0.92285479       0.84175550       0.07073665
C       -3.68755794       2.70816302       1.22221446        1       0.56157486      -1.28037692      -0.14013616
O       -4.68780279       2.74251199       1.89068353        1       0.46671445       0.67491932      -0.34292556
O       -3.02453804       3.67995095       0.56466550        1       0.06707218      -1.61359367       0.24559786
C       -3.40832901       5.01135302       0.69437551        1      -0.71360297       1.73709586      -0.17908961
H       -2.75606489      -0.34492496       1.41046655        1      -0.35238889      -0.25725547       0.34026226
H       -3.22423792       0.57276303       2.88537145        1      -0.67099180      -0.32256864      -0.98352581
H       -4.49957609       0.04107006       1.62627149        1       0.52269780       0.46475239       0.18393611
H       -3.64559507       5.22525692       1.76454043        1      -0.15431451      -0.01787849      -0.89382059
H       -2.52239585       5.64242887       0.43704748        1      -1.06353674      -0.59152816       0.06983850
H       -4.26611900       5.24361420      -0.02387951        1       1.28267149      -0.18562581       1.35674984
10
Lattice="100.0 0.0 0.0 0.0 100.0 0.0 0.0 0.0 100.0" Properties=species:S:1:pos:R:3:molID:I:1:forces:R:3 Nmols=1 Comp=EC(1) energy=-562.0366999775729 pbc="T T T"
C        0.04702185       0.83415061      -1.35688162        0      -0.44983745      -0.54885856      -3.54016563
O       -0.50411916       0.92041564      -0.09821067        0      -2.89160442       1.83129059       1.24767339
C       -0.22546014      -0.08585037       0.71164131        0       0.00492941       0.38482182       3.03490665
O        0.56264788      -0.94790435       0.08703933        0       0.58064441      -1.71626904       1.14686002
C        0.66519684      -0.67460239      -1.26913261        0      -2.30580563       2.28437958      -2.00928082
H       -0.69738817       1.32375765      -2.22990465        0       2.03368688      -2.25242145       3.15325299
H        0.84714788       1.58321857      -1.37349868        0       1.08191121       0.13852928      -0.30891782
O       -0.53938913      -0.08326737       1.89579630        0       0.74972661      -0.35579658      -3.23126829
H        0.02858885      -1.36701536      -1.84039462        0       0.29171609       0.28953144       0.44575451
H        1.65750480      -0.65968937      -1.67245662        0       0.90463289      -0.05520709       0.06118500
34
Lattice="100.0 0.0 0.0 0.0 100.0 0.0 0.0 0.0 100.0" Properties=species:S:1:pos:R:3:molID:I:1:forces:R:3 Nmols=3 Comp=DEC(1):VC(2) energy=-1828.1337891979674 pbc="T T T"
C       -0.09173039      -1.03795123       1.13215828        0      -0.09127204       3.53095138       0.74796438
O        0.66122359       0.21716379       1.06796718        0      -2.00541810      -3.58299794       0.12133984
C        2.00051570      -0.15963122       1.04819417        0      -6.42210483      -2.08468227      -0.11393225
O        2.12524271      -1.43898916       1.02832723        0      -1.89243120      -3.40827219      -0.20399241
C        0.82325763      -1.99034119       1.03538823        0       2.72365965      -4.33891890       0.10992597
O        2.79736471       0.62670475       1.13556421        0       5.94336605       5.80861542       0.13010711
H        0.89998060      -3.19638634       1.03570819        0      -1.11016891       4.78303414       0.01118122
H       -1.19878638      -0.96512020       1.35657227        0       2.51426200      -0.47238849      -1.04057812
C       -0.41216639       2.13632989      -4.04738474        1      -3.79795268       0.17052705       2.27946934
O       -1.54790235       1.62400174      -3.95587182        1       3.68683876       0.86314011      -0.59866477
O        0.27796960       2.39783573      -5.12207270        1       0.41657951      -0.07763589      -0.72096709
O        0.20427561       2.77221179      -3.01263165        1      -0.86526118       0.21457052      -0.93136140
C       -0.13921839       1.75725079      -6.37238789        1      -0.39676200       1.96499583       0.53168410
C       -0.32927039       2.62372971      -1.66351080        1       0.39988243      -1.54454451      -1.23514038
C        1.19375861       1.73544383      -7.19138670        1      -1.93244243      -0.00161332       0.34888994
H       -0.50711936       0.80607575      -6.08773184        1      -0.09722245      -1.35171112      -0.33464303
H       -1.02609134       2.38092375      -6.65819073        1       1.67822530      -0.34902483      -0.03951441
C        0.74890864       3.15720272      -0.68642378        1       0.63952212       3.69452973      -1.96465990
H       -1.45247042       2.74032784      -1.61172080        1       2.26700414       1.37148165       0.06750095
H       -0.24573039       1.54906976      -1.64900982        1      -0.15841368      -1.21067469       1.30950866
H        0.41137761       3.41774178       0.31939122        1      -0.64940023      -0.12366822      -0.14819623
H        1.72883761       2.71294188      -0.58148378        1       0.14793885      -1.40884642       0.20912381
H        1.13165760       4.14930296      -1.22746277        1      -1.84277198      -2.24179102       1.32695947
H        0.91526759       1.30510473      -8.22597790        1       1.01999903       0.39076579       1.47640377
H        1.72747660       2.70354986      -7.21263790        1      -0.48445533      -0.53762619      -0.40899895
H        1.76877558       1.13842678      -6.47950077        1       0.10927280      -0.10682983      -0.93693272
C       -1.03568435      -1.24044025       5.12450600        2      -3.06262540      -4.41567982      -0.13386624
O       -0.75859940      -1.73307025       3.81813025        2      -1.29062098       0.42579461       4.17265742
C       -1.41239440      -2.91287422       3.89505816        2       0.56268482      -0.94694417      -1.78699506
O       -2.24688435      -3.16512823       4.90641403        2       0.71719374       2.20812155       1.95564780
C       -1.91975343      -2.14320517       5.82747746        2       2.87640915       2.06333552      -4.28988804
O       -1.15433335      -3.77282715       3.12227416        2       0.01854048      -0.84978047      -1.20752700
H       -2.43766642      -2.04236126       6.73720312        2      -0.56237640      -0.10000739       0.73517402
H       -0.57101941      -0.39238423       5.46437836        2       0.94032097       1.66377436       0.56232020
32
Lattice="100.0 0.0 0.0 0.0 100.0 0.0 0.0 0.0 100.0" Properties=species:S:1:pos:R:3:molID:I:1:forces:R:3 Nmols=4 Comp=VC(4) energy=-2135.530132373705 pbc="T T T"
C       -0.18384601       2.39934206       2.87055969        0       0.27637962       0.52048476       1.22685778
C       -1.00316405       3.14677811       2.14002562        0      -1.16453001       1.18274674       0.06162774
O       -1.17628205       4.41016912       2.71089673        0       1.62448044      -1.71719749      -1.33389017
C       -0.12086101       4.43738317       3.60548162        0      -1.80335176       3.21065876       1.74887529
O        0.24541499       5.47160482       4.09773779        0      -0.08408947      -1.37206265      -0.62301584
O        0.23488699       3.22132993       3.93537164        0       1.47512186      -1.76009229      -0.78346163
H        0.13492399       1.39397001       2.76868176        0       0.36444223      -0.58761778       0.15508467
H       -1.47591197       2.87969899       1.22259974        0      -0.43901243       0.26416521      -1.21259845
C        0.02037599       0.48658204      -1.62798727        1       0.66763670      -1.29872089      -0.80377454
C       -0.25892201       1.33652198      -0.61137629        1      -0.71739376       1.13659564       1.15511878
O       -0.10946101       2.66759610      -1.08563530        1      -1.08752661      -2.20409002       1.71262430
C        0.27459899       2.57405710      -2.36491919        1       0.76450717      -0.28716904      -0.41429076
O        0.59739196       3.44374299      -3.10663629        1      -0.25642650      -0.06736464       0.19608456
O        0.39864299       1.23445106      -2.70981741        1      -0.63438789      -0.78834961       1.01056799
H        0.15245000      -0.63944596      -1.63558424        1       2.46977219       5.10890364      -3.29215909
H       -0.70971900       1.02950001       0.36996269        1       0.92280175       2.44824003      -1.12917984
C       -1.53499103      -2.18794107      -0.83939826        2       3.66358499      -1.43261670       0.18715831
C       -2.65085101      -1.52059495      -0.90405232        2       0.68402842       2.10895444       1.12271626
O       -3.64232898      -2.19272709      -1.38567626        2      -2.55084760      -2.24965013      -1.55431911
C       -3.10100198      -3.38501406      -1.74439335        2      -1.02887173      -2.01535155      -0.89963425
O       -3.65989709      -4.32537079      -2.21766233        2      -0.07755667       1.05425486       0.37724509
O       -1.79078305      -3.43165493      -1.46657932        2       1.16664006       3.00351064       1.34163557
H       -0.46613801      -1.84036899      -0.73343331        2      -3.19327763      -5.14509299       1.26415128
H       -2.85133791      -0.50869095      -0.68429327        2      -0.80642394       0.92364381       0.23169241
C        2.04542804      -1.78058195       0.30450469        3      -1.08913318       1.28008762      -1.26122621
C        2.20972991      -2.20262599      -0.92132527        3       1.92417094      -1.96459873      -1.15690507
O        3.13455200      -3.29267287      -0.90597731        3      -2.30057805       1.75539771      -1.31521855
C        3.29816103      -3.54355001       0.35827771        3       1.77606707      -1.01921807       1.37091893
O        3.92212296      -4.43347120       0.83328068        3      -0.38606789       0.38097867       0.09101369
O        2.71428394      -2.55500293       1.09104776        3       1.46722808      -2.39291622       2.84206343
H        1.47149301      -1.03928494       0.75463468        3      -0.96337835       1.52485815       1.15577649
H        1.93026602      -1.88170993      -1.89532030        3      -0.66400802       0.39862812      -1.47153904
23
Lattice="100.0 0.0 0.0 0.0 100.0 0.0 0.0 0.0 100.0" Properties=species:S:1:pos:R:3:molID:I:1:forces:R:3 Nmols=2 Comp=EMC(1):VC(1) energy=-1206.8827769471532 pbc="T T T"
C       -0.55368245       2.82042670       1.12392294        0      -5.48926890       4.03010893       1.28347078
O        0.61067361       2.90822387       1.08283591        0       2.06177513      -2.56293700      -0.32182112
O       -1.56757545       1.90141177       1.18038595        0       3.33706613      -0.71052747      -0.05515518
O       -1.31567645       3.95195580       1.31354690        0      -0.78320408      -0.66459549       0.09627948
C       -1.15945637       0.53953975       1.10869789        0       3.02517730      -0.63491999      -0.95316864
C       -0.60942441       5.19708776       1.24397397        0      -2.16771009      -0.17842348       0.53344400
C       -2.15627742      -0.55227125       1.12845790        0       0.20630101      -1.64453490       2.34141201
H       -0.63897443       0.42297876       0.11855894        0      -0.77777790      -0.39558179      -0.11780068
H       -0.30251741       0.28352877       1.83223498        0      -1.53897394       0.61806636       0.00108125
H       -0.11624742       5.35216379       2.20685101        0      -0.07794042       0.30670776      -0.49490929
H        0.10057957       4.94698191       0.51334596        0       0.86804918       0.96327828      -0.77672909
H       -1.82345545      -1.57423818       1.06068397        0       1.44580469      -0.53065069      -0.01872388
H       -2.64350533      -0.58475226       2.09431791        0       0.20324853       1.25301662       0.54215040
H       -2.94465542      -0.71663326       0.51023495        0      -2.27079009       1.35452167      -2.42462315
H       -1.42349541       5.98950672       1.03843296        0       1.95824344      -1.20352881       0.36509312
C       -0.31447041      -3.58338714      -1.46412504        1       4.53149558      -1.31169531      -4.24391444
O        0.55831057      -2.43077517      -2.18514109        1      -6.76318169      -2.98377925       0.87110147
C        1.54243159      -2.25624514      -1.45400703        1       3.97902329      -3.26994930       0.98421762
O        1.86569357      -3.50974727      -0.79744804        1      -3.87610734      -1.97490545      -0.06641790
C        0.73536760      -4.48398829      -1.06666505        1       1.30883838      10.03786994      -1.88635293
O        2.37544250      -1.38256919      -1.48509705        1      -0.25782690       0.30471043       0.63344657
H        0.76844460      -5.31061125      -0.46970305        1      -0.32453704      -1.91913425       1.27690524
H       -1.12763941      -4.02895403      -2.15072918        1       1.40229571       1.11688319       2.43101437
21
Lattice="100.0 0.0 0.0 0.0 100.0 0.0 0.0 0.0 100.0" Properties=species:S:1:pos:R:3:molID:I:1:forces:R:3 Nmols=2 Comp=PC(1):VC(1) energy=-1181.5955908974208 pbc="T T T"
C       -2.77607775      -0.20562433      -1.53955948        0       1.90803047       0.56651042      -3.58997453
O       -2.36679482      -0.44564033      -0.26708949        0       0.44580615      -0.04295311       1.48904966
C       -3.39124370      -0.18280132       0.55434549        0      -1.18701991      -4.12403325       4.71153327
O       -4.47453070       0.09359468      -0.11637549        0      -0.38425292       2.36987055      -1.73833944
C       -4.05466175       0.61176068      -1.47582543        0      -0.85938093      -1.00774247       4.05591045
C       -1.49644876       0.57169569      -2.21235037        0      -4.32696055      -0.84417337      -1.80281428
H       -2.93682575      -1.11523938      -2.09851551        0       0.01972234       0.11446910      -0.17568147
O       -3.44998264      -0.63177931       1.70508349        0       0.72768841       2.07373164      -3.37464040
H       -3.87626767       1.68107963      -1.29247153        0      -0.43679494      -0.18434304      -0.93227022
H       -4.94257879       0.44917867      -2.05512452        0      -0.30417201       0.00881404      -0.74683513
H       -1.58334780       1.45300567      -1.67489552        0       1.76772554       2.76231825       1.02115191
H       -0.69514275      -0.06060532      -2.13386655        0       2.63161224      -1.30858692       0.51214318
H       -1.74266374       0.85064769      -3.25860858        0      -0.00200388      -0.38388183       0.57076700
C        3.14170218       0.07860968       1.90398347        1      -5.17183523      -1.08989840       2.27078260
O        4.31518841       0.20511667       1.47918546        1       4.97060018       0.59383154      -1.36411051
C        4.23197222       0.08495168       0.09893551        1       8.06391425      -0.16753150      -2.86251803
O        3.03761721      -0.08545133      -0.25864148        1      -3.36798641      -0.33817957      -1.27846254
C        2.26470423      -0.09372932       0.89008349        1      -1.51174719       0.13165042      -0.32984821
O        5.23632526       0.02389467      -0.65116549        1      -4.73916121       0.48327185       3.80199868
H        1.16768730      -0.07575033       0.74390954        1       1.24762418      -0.05203729       0.21459347
H        2.90786624      -0.14447433       2.95684457        1       0.50859143       0.43889296      -0.45243546
35
Lattice="100.0 0.0 0.0 0.0 100.0 0.0 0.0 0.0 100.0" Properties=species:S:1:pos:R:3:molID:I:1:forces:R:3 Nmols=3 Comp=DMC(1):EMC(1):VC(1) energy=-1799.134286398842 pbc="T T T"
C        0.77743095      -4.03600359       0.27467319        0       1.03085691      -2.13870869       1.01523702
O        1.28903091      -5.16320753       0.95929217        0       0.30176065       0.50226688      -0.77386033
C        0.75651294      -5.16368055       2.18931627        0       1.13316049      -2.61701809       3.39602910
O       -0.16066407      -4.14499569       2.23753524        0       0.25235897      -1.06931056       1.34933106
C       -0.13006607      -3.53275061       1.02234018        0      -2.95523971       3.36261361       1.56646540
O        1.10245395      -5.90156651       3.12484407        0      -1.56078490       2.95448703      -3.63516373
H       -0.73748505      -2.59803772       1.09414721        0       0.86232574      -1.41809765      -0.66070854
H        1.16478693      -3.86064363      -0.65364784        0       0.90402085       0.22937097      -2.06769162
C        2.39473701      -0.13567971      -2.00385976        1      -3.42091566       0.92852920       0.86724070
O        2.02117705       0.93080831      -1.53105283        1       0.47168168      -1.62402442      -0.86246432
O        1.56575596      -1.17551470      -2.29425788        1      -0.71349890       0.87872850       0.40641398
O        3.56410599      -0.51147169      -2.36361885        1       0.58603533      -1.43690881      -0.69144319
C        0.08413994      -1.07812166      -2.07079673        1       3.52018716       1.67318895      -0.94615804
C        4.63801384       0.32011929      -2.19520688        1       1.33718448       3.36919887       0.32888122
H       -0.02724706      -1.10631275      -0.99866283        1      -0.78054663       0.16825941      -0.26827767
H       -0.23066705      -0.09215672      -2.55662274        1      -0.40714416      -1.78754373       0.63424325
H       -0.13875505      -1.96449971      -2.61947680        1      -1.26768117      -0.34188604      -0.03684551
H        5.52925682      -0.25668570      -2.45086575        1      -0.50626380       0.45929807       0.07311085
H        4.53675508       1.33490324      -2.72569370        1       0.35979858      -1.61463820      -0.12775708
H        4.66562796       0.72269827      -1.16748881        1       0.43403962      -0.69813144       0.21092238
C       -2.15529704       3.67527223       0.67875421        2      -2.12342175       0.09952117       0.09948205
O       -2.19263101       3.17264032       1.81260824        2       1.22889572       1.38548233      -4.38656199
O       -2.98643708       4.62139940       0.16492219        2      -0.56624808       0.86138667       2.27572952
O       -1.49599302       3.30005240      -0.51957279        2      -0.18786940      -1.07077216       2.93414877
C       -4.00357485       5.33675241       1.03247321        2       0.59625459       0.84026202      -0.81024066
C       -0.48296008       2.28641725      -0.33284181        2      -0.67863775       2.05309608      -0.11303677
C       -4.74070215       6.38486719       0.09098719        2      -1.00479631       0.78525799       2.31304030
H       -4.58521795       4.56906319       1.51632619        2      -0.71192179      -0.76948318      -0.93735466
H       -3.61696410       5.83598614       1.95198119        2       0.81451875       0.08127893      -1.75652719
H        0.13538894       2.76807332       0.40759417        2       0.61473935       0.66528605       0.67906706
H       -0.68323606       1.33709824       0.08318919        2      -1.41683929      -1.62602063       0.94456781
H       -5.36767626       7.06059551       0.80738819        2       0.62039030      -1.90089252      -1.17101758
H       -4.12336302       7.20362139      -0.28329381        2       0.80556129      -1.39724313      -0.18913936
H       -5.39347601       5.98927641      -0.74339181        2       1.30166231      -0.11229254       1.32895309
H       -0.01203106       2.06862926      -1.25954878        2       1.12637655       0.32545909      -0.98861533
18
Lattice="100.0 0.0 0.0 0.0 100.0 0.0 0.0 0.0 100.0" Properties=species:S:1:pos:R:3:molID:I:1:forces:R:3 Nmols=1 Comp=DEC(1) energy=-760.1558033966646 pbc="T T T"
C        0.21545677       0.27857527       0.78011549        0       2.73525911       2.15572541       1.24062175
O        1.21367276       0.73387229       1.36984849        0      -3.98989572      -0.27020334      -1.53640195
O        0.36155477      -0.84742874       0.10499748        0       0.36317617      -1.60502988      -2.90033966
O       -0.96275026       0.95702928       0.50959450        0       2.86597957       1.88441908       4.00225532
C        1.44331980      -0.93667674      -0.97146153        0       1.56236805      -1.63807591      -0.88937010
C       -1.85403621       0.46545729      -0.32444653        0      -1.44868439      -1.19485526      -3.78949284
C        2.63966966      -1.96566975      -0.47162151        0      -3.43044081       2.93671213      -1.07735221
H        0.93263578      -1.43869877      -1.92214453        0       1.28686808       1.34405614       3.14725679
H        1.84146082       0.10294128      -1.22501552        0      -0.68100039      -1.97845429       0.81797881
C       -3.10192323       1.32403529      -0.93014354        0       3.25639289       0.62689583      -2.85436946
H       -1.13933623       0.15264128      -1.19133651        0      -1.78426702      -0.20816048       0.13073678
H       -2.34241629      -0.45918372       0.11588048        0       0.19703556       0.66517884      -0.53384953
H       -2.68730831       2.20029140      -1.67216051        0      -0.94475120      -3.12055557       2.88404741
H       -3.57766914       0.60869330      -1.68711853        0       0.45545430       1.25582667       1.87785638
H       -3.60041618       1.88782930      -0.14118752        0       0.50657099      -1.02562850      -0.36753323
H        3.46203876      -2.13866377      -1.12403250        0       0.01723843      -0.54211554      -1.33547901
H        3.18801069      -1.56574667       0.34892547        0      -0.91656190       0.64617104       1.03305747
H        2.03143668      -2.80301762      -0.16429052        0      -0.05074173       0.06809362       0.15037729
44
Lattice="100.0 0.0 0.0 0.0 100.0 0.0 0.0 0.0 100.0" Properties=species:S:1:pos:R:3:molID:I:1:forces:R:3 Nmols=3 Comp=DEC(2):VC(1) energy=-2057.7806415677055 pbc="T T T"
C        0.30511126       0.00994164      -3.06306362        0      -0.65052224       1.88059205      -1.10754429
O        0.63089526       0.82307667      -2.22752953        0      -0.26639895      -1.69752028      -0.63991192
O       -0.00509874      -1.26174140      -2.95426345        0      -0.81937695      -0.55962534       1.99218107
O        0.08915926       0.25015363      -4.38722277        0       0.02760700       2.93262712      -1.18561082
C        0.16192526      -1.78970039      -1.59430158        0       1.22962188       1.20014571      -0.22052877