1
Lattice="100.0 0.0 0.0 0.0 100.0 0.0 0.0 0.0 100.0" Properties=species:S:1:pos:R:3:forces:R:3 config_type=IsolatedAtom energy=-11.037700071100621 pbc="T T T"
H        0.00000000       0.00000000       0.00000000       0.00000000       0.00000000       0.00000000
1
Lattice="100.0 0.0 0.0 0.0 100.0 0.0 0.0 0.0 100.0" Properties=species:S:1:pos:R:3:forces:R:3 config_type=IsolatedAtom energy=-48.9871353920509 pbc="T T T"
C        0.00000000       0.00000000       0.00000000       0.00000000       0.00000000       0.00000000
1
Lattice="100.0 0.0 0.0 0.0 100.0 0.0 0.0 0.0 100.0" Properties=species:S:1:pos:R:3:forces:R:3 config_type=IsolatedAtom energy=-102.73850103487425 pbc="T T T"
O        0.00000000       0.00000000       0.00000000       0.00000000       0.00000000       0.00000000
24
Lattice="100.0 0.0 0.0 0.0 100.0 0.0 0.0 0.0 100.0" Properties=species:S:1:pos:R:3:molID:I:1:forces:R:3 Nmols=3 Comp=VC(3) energy=-1602.6769398161164 pbc="T T T"
C        0.45285612       3.01426506      -2.32330513        0       3.57750191      -1.07358076      -0.47574300
C       -0.65326887       3.32036090      -1.70732403        0      -0.90082918       0.83562904      -0.37841503
O       -0.82637185       2.63587189      -0.55307001        0       1.03943647      -1.14660611       0.67609654
C        0.26635113       1.80842292      -0.42423803        0      -0.27341416       1.04266737      -3.37011698
O        0.50404215       1.07012391       0.47730500        0       0.01989838      -0.56134428       1.62458900
O        1.20395112       2.09938192      -1.54059100        0      -2.96749275       1.39797815       0.81841757
H        0.99488211       3.42258286      -3.19497991        0      -0.47503182      -0.48231645       0.77426944
H       -1.42996383       3.95062685      -2.12583590        0      -0.32679489      -0.12741355       0.72383255
C        1.26803315       0.08491497       2.52308202        1      -0.89532228       0.43408422      -2.53651772
C        0.71784115      -0.92897701       3.20788789        1      -5.12229185      -0.22014049       2.86438780
O        0.64552510      -2.02956414       2.40690088        1       1.01272180      -1.31686740      -0.01076833
C        1.62233818      -1.82807600       1.46278298        1       0.22654808      -1.89350063      -1.64547286
O        2.07954812      -2.65240097       0.69964898        1      -1.13383499       2.51422150       2.25806022
O        1.90033615      -0.53814703       1.52785194        1       1.56310728      -1.14623832      -0.43767946
H        1.60973608       0.97362196       3.01618791        1       0.87547485       1.59412736       0.58796124
H       -0.23638988      -0.89091206       3.98334789        1       3.43392002      -0.08315348      -2.40088867
C       -2.61711597      -1.50253499       0.01472599        2       0.71940497       1.53622388      -1.51263195
C       -1.65134692      -2.33284712      -0.23200200        2       2.07744133      -0.97223763      -0.64681426
O       -0.75461686      -1.64041007      -1.12287402        2      -0.00300176      -2.51569100       1.26892845
C       -1.23930693      -0.42871904      -1.39447701        2       0.60620112      -0.15158629      -0.52981312
O       -0.76134789       0.30777997      -2.22421694        2      -0.16943238       0.08398704       1.21213821
O       -2.37302589      -0.32890302      -0.69123900        2      -1.53376988       0.89242315       0.67021440
H       -3.27383399      -1.43262005       0.79540098        2      -1.87038639       0.29781577       1.60017712
H       -1.51131582      -3.31143308       0.29795000        2       0.51994613       1.06151893      -1.13421116
22
Lattice="100.0 0.0 0.0 0.0 100.0 0.0 0.0 0.0 100.0" Properties=species:S:1:pos:R:3:molID:I:1:forces:R:3 Nmols=2 Comp=DMC(1):EC(1) energy=-1151.5960061080652 pbc="T T T"
C        2.69088602       2.54591513      -2.12696218        0      -1.61964251       5.28635470       2.03904032
O        2.34068704       3.64524508      -1.67616713        0       0.44375161      -2.94510224      -1.22410551
O        1.94911408       1.49887204      -2.25967312        0       0.05438061      -1.97345515      -0.59640003
O        3.84929514       2.26471615      -2.58353305        0       2.77619063      -1.38972157      -0.88876605
C        0.58085805       1.60748911      -2.26327205        0      -1.92941557       0.02125845      -1.23300274
C        4.93368006       3.14626217      -2.62285423        0       2.88887724      -0.50175194      -0.88657745
H        0.20010208       1.35155511      -1.32161117        0      -0.57716667      -0.41834014       2.03127212
H        0.13602108       2.57295012      -2.51098919        0       0.65028171       0.37530193      -0.26389017
H        0.19209708       0.83466810      -2.94893003        0       0.41784919       0.44831769       0.07589010
H        5.82548094       2.54683304      -3.02168822        0      -1.35018373      -0.01108330       0.74993716
H        4.87149000       3.85138416      -3.42286325        0      -0.98741946       1.00119443      -0.25345945
H        5.33360624       3.57181811      -1.71259320        0      -0.76750307       0.10702714       0.45006171
C       -3.41220593      -1.40147686       1.27721584        1       4.33194676      -2.97342009       2.04995579
O       -2.92165089      -1.47329795       2.67879891        1      -1.20030268       2.01359218      -2.02607608
C       -2.61571789      -2.75121093       2.98010492        1       1.02228314       1.68868566       1.11416177
O       -3.01706386      -3.61698890       2.14714384        1      -0.66660890      -1.03494999      -4.10760080
C       -2.94653201      -2.85366082       0.89804888        1      -0.80738515      -0.62613730      -1.33523743
H       -4.42421579      -1.24309289       1.20551991        1      -2.62243677       0.62691364       0.01991757
H       -2.80409384      -0.83304894       0.58278483        1      -0.32746947       0.89734350       0.37363915
O       -1.86870396      -2.94726801       3.88132596        1       0.53131332      -0.37429807       1.73895692
H       -3.50762296      -3.30938387       0.07090886        1      -0.85657899      -0.03627639       1.02659591
H       -1.93009996      -2.85789800       0.47551787        1       0.59523874      -0.18145313       1.14568720
25
Lattice="100.0 0.0 0.0 0.0 100.0 0.0 0.0 0.0 100.0" Properties=species:S:1:pos:R:3:molID:I:1:forces:R:3 Nmols=2 Comp=DMC(1):PC(1) energy=-1237.2643861401812 pbc="T T T"
C        2.67575073       2.86108518      -2.86082530        0      -0.78411875      -2.59660537       2.38023933
O        2.76785755       3.16294599      -1.37367737        0       3.01115589       4.11772321      -3.78224508
C        2.53783751       2.18929100      -0.59767431        0      -1.21825707       1.52038385       5.66620316
O        1.93164957       1.26053202      -1.20610726        0      -1.32669014      -3.52751829      -3.52791574
C        1.75701964       1.53768110      -2.68214726        0       2.14895146       0.06213246       3.74927239
C        1.82226360       3.92414308      -3.45830131        0      -0.35514334       0.21091258      -1.60679237
H        3.62236261       2.79383111      -3.48461127        0      -0.61579615      -0.28632865       0.55102626
O        2.62325168       2.39863515       0.62851471        0       0.14639883      -1.51202794      -2.90395138
H        0.69594961       1.78663802      -2.79194736        0       0.56677059       0.69416240      -1.24829985
H        2.12722850       0.64140809      -3.18146920        0      -0.58564851       0.52752937      -0.18149691
H        0.94558364       4.07772589      -2.83702040        0      -0.23020823       0.51094805      -0.02460414
H        2.44793057       4.83902597      -3.65341330        0      -0.89949698      -0.13407463       0.20428026
H        1.39495564       3.45968413      -4.37784052        0       0.14208240       0.41276296       0.72428405
C       -2.77969742      -2.77740502       1.95494866        1       0.97730124       0.47960811      -2.07667280
O       -3.66863132      -2.42830992       2.60583663        1      -3.57900273       2.16033946       1.54838078
O       -2.29131937      -2.42984796       0.79584169        1      -0.31522138       2.57731761      -3.18708679
O       -1.89286339      -3.66918087       2.21758556        1       2.34215978      -2.55843664       0.39333121
C       -2.91089439      -1.28356600       0.07705668        1       2.06750644      -1.32035220      -1.04394594
C       -2.05939937      -4.26767588       3.43624568        1       1.22075313      -4.49525012       1.82616401
H       -3.72709346      -1.70948493      -0.53036433        1       0.55695754       0.65870292       0.45442783
H       -3.16581345      -0.57542592       0.80696666        1      -0.95971644       0.60454187       1.20020244
H       -2.09199142      -0.74095094      -0.52423334        1      -1.46314414      -1.28178397       0.59427366
H       -1.32394242      -5.09556913       3.62502956        1      -0.18712344       0.68317492      -1.17121291
H       -1.93663037      -3.67549205       4.25493479        1       0.88202772       3.08550204       2.49464142
H       -2.99357438      -4.73741913       3.66374469        1      -1.54249771      -0.59336399      -1.03250290
27
Lattice="100.0 0.0 0.0 0.0 100.0 0.0 0.0 0.0 100.0" Properties=species:S:1:pos:R:3:molID:I:1:forces:R:3 Nmols=2 Comp=DMC(1):EMC(1) energy=-1265.0347809593827 pbc="T T T"
C       -2.03106403       0.65746909       0.26760513        0       0.83882417      -0.24220146      -0.12929367
O       -1.07807493       0.48504212       1.01702011        0      -1.85514079       0.99963333      -2.16877547
O       -3.26775193       0.23020512       0.42069915        0      -0.78352160      -0.36708939      -0.41383544
O       -2.21094799       1.20861411      -0.95951784        0       3.13037974       0.56271011      -1.18148043
C       -3.54576588      -0.43989488       1.59327912        0      -0.84848343       1.02825805       1.98810404
C       -0.96694797       1.71850216      -1.62740982        0      -3.69114735      -1.54162447       0.14741746
C       -5.02091789      -0.62569290       1.77413309        0      -3.03200287      -3.92795918      -1.04063149
H       -3.05448604      -1.41090190       1.60176313        0       0.53623465      -0.07702786       0.14494938
H       -3.22410202       0.31734413       2.37260509        0       0.34708897      -1.16697382       0.09063634
H       -0.72410798       2.40959311      -0.88021588        0       1.07229003       1.54764536       0.88042993
H       -0.25252098       0.92709315      -1.77050185        0      -0.29780021      -0.69021485       0.08782322
H       -5.35431385      -1.19761384       2.70942616        0       0.87677693       0.97758767      -1.11248295
H       -5.65353584       0.21069811       1.69021618        0       0.22627704       1.37757718       0.22936341
H       -5.48677492      -1.27245092       0.88484311        0       1.94206009       1.30441293       1.79347269
H       -1.31561697       2.06881022      -2.61999083        0       0.30716821       0.18058019       0.84923106
C        2.86216998      -0.54789591      -0.30648586        1      -0.75169270       2.30430784      -0.50561716
O        2.04342008       0.15615812       0.27660215        1       0.97650653      -2.21244961       0.64044274
O        3.26260614      -0.10306588      -1.49444783        1       1.09744383      -1.18568952      -0.66959482
O        3.59369302      -1.61061084      -0.04163986        1      -0.14097610       0.48555342       0.49473062
C        2.62956214       0.98352611      -2.09231687        1      -0.28985829       0.71091949       0.70377180
C        3.55574894      -2.15067077       1.29780114        1      -0.89651480       1.39898294      -1.68543387
H        1.88944602       0.64559013      -2.80296278        1       0.02960293      -0.41919371      -0.70645478
H        2.08495712       1.70345008      -1.42564690        1       1.29036731      -0.32129732       0.10953404
H        3.46013594       1.43517017      -2.62836289        1      -0.06684701       0.47979199      -0.19371497
H        4.11010695      -3.05958986       1.20176017        1       0.74481712      -0.33845499       0.71515184
H        3.79936910      -1.30624783       1.98418510        1      -0.23974480      -0.94955418      -0.14939380
H        2.50926495      -2.46688581       1.28762710        1      -0.52210759       0.08176985       1.08165028
40
Lattice="100.0 0.0 0.0 0.0 100.0 0.0 0.0 0.0 100.0" Properties=species:S:1:pos:R:3:molID:I:1:forces:R:3 Nmols=4 Comp=EC(4) energy=-2247.5719668729894 pbc="T T T"
C       -0.45859733       3.28287387      -3.49498057        0      -1.73551519       2.66068382      -2.56916076
O        0.88948870       3.79171300      -3.25429845        0      -2.43020466      -0.01177904       0.81925528
C        1.77967572       2.90106797      -3.77192235        0       0.83229380       3.51826811      -1.37594520
O        1.17627263       1.93414199      -4.35922432        0       0.05264464      -2.52818861      -0.64217969
C       -0.21532533       1.93098700      -4.04651356        0      -0.56551689      -2.79759546       0.26351657
H       -1.27154136       3.41099501      -2.76392436        0       1.03645330      -0.10654364       0.63446038
H       -0.92158234       3.83359003      -4.43693542        0       1.59544108      -0.76025126       1.88773857
O        2.90443778       3.31073308      -3.80425644        0       0.39384218      -1.35498450      -0.53309672
H       -0.37066332       1.10437799      -3.21093941        0       0.04090871       1.75266305      -2.06987400
H       -0.76461333       1.62513399      -5.02565050        0       0.63192580      -0.16468395       1.24556431
C       -3.80103922      -2.50376415       2.43770266        1      -1.08406037       0.12841543      -3.20932828
O       -3.38939834      -3.25377202       1.26028454        1       0.30689076      -0.42693111       0.64595504
C       -2.30445933      -3.99550915       1.61562252        1       3.12942114      -1.30504520      -3.19924324
O       -2.14457035      -4.05070019       2.94205546        1      -0.45772977       0.82605929       0.01533902
C       -2.87330842      -2.91826797       3.46709847        1       1.25451753      -1.51794019       3.34072428
H       -3.50343823      -1.48718607       2.20085359        1      -0.81950716       0.67987880      -0.24445042
H       -4.90017223      -2.60740995       2.47806549        1       0.27716579       0.23883713       0.30258938
O       -1.42242634      -4.39646721       0.83060056        1      -3.33633365       1.33817912       2.53739507
H       -2.05277324      -2.11510110       3.58914661        1      -1.15744856      -1.21006008       1.18417414
H       -3.41370034      -3.34911704       4.41145039        1       1.29212002       1.16434554      -1.29897619
C        2.30157065       3.02082801      -0.87318546        2       1.23183807       0.28286933      -1.35745963
O        1.55322373       4.09202099      -0.41163146        2      -1.45529889       1.32326597      -0.69688422
C        0.22185968       3.76526093      -0.52127045        2      -1.06022247       2.65923354       3.99855884
O        0.00528267       2.46501303      -0.45626047        2       3.35530037      -0.08923881      -1.82906873
C        1.41516268       1.88063395      -0.86391044        2      -3.71327536      -2.82239915       0.76760428
H        2.83828473       3.31009007      -1.79112947        2      -0.75932944      -0.11020698       1.39311366
H        3.08249879       2.85036993      -0.17078246        2       0.98518496      -0.57769866       1.20091692
O       -0.57856935       4.68077612      -0.37167346        2       1.34453692      -2.62378336      -1.42272738
H        1.33951473       1.28182793      -1.79590452        2      -0.30157217       0.73247155      -0.33922270
H        1.47189569       0.99151593      -0.16966246        2       0.51516240       0.29367991       0.84975892
C        0.88761669      -2.09321308       0.81132352        3      -4.10662654      -0.61892378      -2.41094236
O        0.03761967      -1.97608399       2.01637745        3       0.04642723       2.63327544      -0.96171040
C        0.60278767      -2.53470492       3.05735755        3       1.19254577      -2.24287808       0.46611331
O        1.52326167      -3.40426898       2.49319744        3      -0.23109764      -0.89183085       2.70949793
C        1.51099765      -3.45389700       1.07032657        3      -0.07841485       3.40790101       2.52006530
H        0.08297767      -2.01841211      -0.05692146        3       1.59858169      -0.58194965       2.01100768
H        1.59659469      -1.32058406       0.56207752        3       0.37168708       1.10449982       0.69884898
O        0.34869966      -2.52002215       4.24030066        3       0.41123239       0.47977423      -2.40131248
H        1.02420068      -4.25862026       0.65650052        3      -1.73418726      -2.11979441      -1.21908221
H        2.53591371      -3.38821101       0.90628552        3       3.13021925      -0.36159433      -1.71153325
30
Lattice="100.0 0.0 0.0 0.0 100.0 0.0 0.0 0.0 100.0" Properties=species:S:1:pos:R:3:molID:I:1:forces:R:3 Nmols=3 Comp=EC(3) energy=-1687.2474547981806 pbc="T T T"
C       -4.12463999      -1.38331330      -2.42669320        0       0.67817940      -0.38307562       1.57393943
O       -4.85671186      -0.58527428      -3.29135799        0      -1.37894105       1.50378207      -0.98900548
C       -4.90107059      -1.11834621      -4.56758595        0      -0.58747580       0.69673487       1.06646780
O       -4.02001286      -2.08291125      -4.62866592        0       1.19839843      -1.01945427      -0.65139930
C       -3.24393392      -2.16244316      -3.42454815        0      -3.07751758      -1.42036477       0.55305217
H       -3.52626491      -0.84614927      -1.66835916        0       0.32355797       0.33370826      -0.25129614
H       -4.85408068      -1.92120123      -1.77655911        0       0.08234696      -0.63441558      -0.63097144
O       -5.69529676      -0.78748024      -5.39322805        0       0.53706618      -0.08302481       0.28499531
H       -2.31512570      -1.72622728      -3.47138715        0       2.49755393       1.36304068      -0.63021030
H       -3.18651271      -3.17717123      -3.06380701        0       0.14244115      -0.66932005       0.15075294
C        0.30978417      -0.65456825      -0.57457012        1       3.04089293      -1.13219267       1.16595356
O       -0.88102782      -1.13273120      -0.17320210        1      -3.50343993      -0.41828740       1.93680572
C       -1.14308679      -2.33998322      -0.65088713        1       1.69859626       0.85703424      -2.40085288
O       -0.15073483      -2.73469424      -1.49947405        1       2.05286707       0.55625231       0.83392252
C        0.98336518      -1.88646221      -1.22591114        1       1.44668542       1.38616252      -1.75211938
H        0.22791818       0.14389074      -1.23837507        1      -0.36686334       1.78797474      -1.62853175
H        0.85364717      -0.37587824       0.35009891        1       0.02577037       0.77972061       0.26117984
O       -2.14108491      -2.93444228      -0.60166711        1      -2.73102929      -0.98609797       0.38291104
H        1.68404114      -1.63605428      -2.08693218        1      -1.95676073      -0.86511418      -0.25431774
H        1.70171022      -2.23403931      -0.50286508        1      -0.12232836      -1.65306298       0.97872407
C        3.67231321       2.92746186       3.89800692        2      -1.29149758      -0.57587105       2.10654963
O        4.82196808       2.26200986       4.53771782        2      -2.41262157      -2.99764896      -0.47937057
C        5.47337103       3.08063078       5.26452112        2       3.22604430       1.98394894       0.79392052
O        5.27526140       4.36545181       4.83315992        2      -0.25160954      -0.22637345       0.67545314
C        4.28790140       4.29067278       3.83464384        2      -1.22415907       2.36769640      -0.76594655
H        3.43658614       2.38041568       2.99494600        2       0.20325033      -0.60382193      -0.83373583
H        2.68566012       2.82074285       4.53663397        2       2.36447762       0.56311998      -1.02205132
O        6.34440804       2.87332678       6.06447983        2      -1.00056772      -0.18331875      -0.34635260
H        4.68179321       4.43559790       2.83605695        2       0.58485943      -0.12540382      -0.52897092
H        3.64824009       5.17260456       3.99479294        2      -0.19817621      -0.20232735       0.40050450
28
Lattice="100.0 0.0 0.0 0.0 100.0 0.0 0.0 0.0 100.0" Properties=species:S:1:pos:R:3:molID:I:1:forces:R:3 Nmols=2 Comp=EMC(1):PC(1) energy=-1323.5000240675056 pbc="T T T"
C        1.72377765       3.32298040       1.23377502        0      -2.94377799      -2.93930004       1.35595003
O        2.63007474       3.96519041       1.53447902        0       4.43688409       2.13591028       1.40413218
O        1.29991972       2.14615750       1.84063101        0       0.07736453       0.90354030      -0.27301405
O        0.77926767       3.66562247       0.43865305        0      -2.98054634      -1.06693778      -1.89648123
C        1.90697467       1.75645757       3.04736710        0      -0.39629243      -2.45715081      -0.03414837
C        0.88982570       4.74090958      -0.45231396        0       0.24772350       2.20459438       0.34158268
C        1.15173769       0.57867450       3.70658803        0      -1.12102618       0.04750661       0.95055077
H        2.79456258       1.18240547       2.76503110        0       1.27818509      -0.01891175      -0.50866343
H        2.20889378       2.54168057       3.70765495        0       0.03084687       1.26052628       0.24064889
H        0.10335267       4.74462366      -1.20242596        0      -0.24024344      -0.06333086       0.47706593
H        0.86104167       5.71037769       0.15870804        0       0.17437220      -1.43481088      -1.04589048
H        1.82548165       0.10581652       4.46028614        0      -0.45669089       0.31513909      -0.59165706
H        0.22868967       0.92526150       4.24658728        0       0.80506466      -0.27959938      -0.67434577
H        0.82980067      -0.20090248       2.97496009        0       0.52331922       1.21992031       0.15795133
H        1.80501771       4.65960073      -1.02614200        0       0.56481713       0.17290425       0.09631858
C       -1.31142235      -4.00997543      -1.90670896        1       0.19468588      -1.93560188      -1.51155034
O       -1.36890638      -2.83475542      -2.73198986        1      -2.38891274      -1.60617818       4.65548025
C       -1.54313231      -1.91736245      -1.71109498        1       4.34924377      -1.42988146      -0.61481836
O       -1.16352928      -2.32432938      -0.44027796        1      -2.98235861      -2.20021363      -0.68255766
C       -1.41685629      -3.77515841      -0.40252295        1       0.50860477       1.30224446       0.65443615
C       -2.38931227      -5.01158953      -2.23772907        1       0.24014553      -0.94452463      -0.34017011
H       -0.30356833      -4.38847160      -2.05719805        1      -0.16818290      -0.11274947      -0.59450916
O       -1.39821637      -0.80781245      -2.05047894        1      -0.99980764       3.49799208      -0.29471357
H       -2.34512043      -4.16522455       0.13714604        1       1.66552931       1.26375967      -1.24566542
H       -0.57648534      -4.34543562       0.01129304        1      -0.26224195       0.83191805       0.87618722
H       -3.37616634      -4.65697241      -2.00140500        1      -0.16266547       0.71194048      -0.13800434
H       -2.36349630      -5.22382641      -3.30567098        1      -0.18011989       0.00502089      -0.63142016
H       -2.28031039      -5.97883224      -1.71653998        1       0.18607995       0.61627362      -0.13269450
46
Lattice="100.0 0.0 0.0 0.0 100.0 0.0 0.0 0.0 100.0" Properties=species:S:1:pos:R:3:molID:I:1:forces:R:3 Nmols=3 Comp=DEC(2):EC(1) energy=-2083.814565382173 pbc="T T T"
C        1.12228513       2.57065392       3.05553150        0      -0.95465804      -2.40693188      -2.19482599
O        0.89510715       3.33680701       3.90915251        0      -0.58391709       1.84213065       2.72797677
O        0.83131516       1.22789502       3.08354163        0       1.68854040       1.96392920       4.29369196
O        1.47916710       2.80396104       1.84003460        0       0.75185806      -0.12360307      -1.96711829
C        0.86742717       0.93730795       4.75010538        0      -1.80648952      -0.27217822      -2.47004076
C        1.98150611       4.01263905       1.23323762        0       0.28417870      -0.23934386       2.84867150
C        0.80585617      -0.58874100       4.48594856        0       0.60232457       0.82880475       0.88673491
H        1.87435615       1.08331895       5.15053034        0       0.27163536       1.29226042       0.03785388
H       -0.02357686       1.61593997       5.10627460        0       2.29037297      -2.26989118      -0.50200900
C        0.86050314       4.98110104       1.04421353        0       0.15309931       1.07922502       0.54925786
H        2.59138203       4.60207987       2.06282258        0       0.15737605      -1.11758297      -1.41495648
H        2.49448419       3.56533098       0.39430356        0       0.42231497       0.33520849      -0.46641062
H        1.30257308       5.96039391       0.89348656        0       0.55577727       0.95419928       0.16861234
H        0.26657715       4.89897490       0.20957758        0      -1.56616155      -0.96597287      -2.34878073
H        0.17814614       5.04733515       1.87895453        0       0.02746356      -0.50663760       0.86863314
H        1.16012108      -1.13257897       5.37814569        0      -1.04244706       0.47374995       0.03079722
H       -0.23201686      -0.73150504       4.21799374        0      -0.26393110      -1.13816778      -0.38479917
H        1.59177709      -0.83813405       3.75746059        0      -0.98733685       0.27080164      -0.66328853
C       -3.41360188      -0.98489702      -1.42369044        1       0.00124506      -2.95848400       0.37936461
O       -4.55164003      -0.98675704      -1.68807948        1      -4.14335628      -1.00539650      -3.08845114
O       -2.50612378      -1.95843303      -1.43353546        1      -0.25923054      -1.85557598      -0.80088144
O       -2.91195083      -0.18129502      -0.62358844        1       4.26230533       3.55105750       3.57525636
C       -2.94922781      -3.16452909      -2.04602051        1      -2.05630689       0.60998489      -2.42121294
C       -3.65715981       0.89645898      -0.14776742        1       1.61222291       1.15997997       4.72892596
C       -1.73851287      -4.02535009      -1.99297738        1      -0.03925848      -2.39039784      -0.15234625
H       -3.87312388      -3.66752005      -1.60215044        1       1.53393471       0.92170984       0.55572755
H       -3.32941294      -2.82905102      -3.10723448        1       1.04643931      -0.42545613       1.46535242
C       -2.66523385       1.63324594       0.88361657        1      -2.84669668       0.08044821      -0.66386947
H       -3.91746187       1.44909501      -0.97636640        1      -1.04552848       1.80167531      -2.00582054
H       -4.52412081       0.52065700       0.48019758        1       0.90444641       0.11925335      -0.63750636
H       -3.43014789       2.24482489       1.47997653        1       1.15048712      -0.57468248      -0.27372069
H       -2.09312892       0.97019100       1.50268054        1      -0.53848697      -0.90587111       0.17116735
H       -1.89375591       2.26521993       0.49221757        1       0.05002060       0.59292822      -0.78900600
H       -2.09110880      -5.09659481      -2.20086837        1       0.77764463       1.23097679      -0.30824513
H       -0.93603188      -3.68115592      -2.69023538        1      -1.10839463      -0.70309887       1.02875166
H       -1.35541391      -4.14123487      -0.96314341        1       0.16745279       0.64573801      -0.93806882
C        2.30126524      -3.24978709      -3.27970552        2      -0.13019481       5.38555595       1.91050786
O        3.00183821      -1.84303808      -3.55832553        2      -0.39316397      -4.15360158       0.22950084
C        2.96121526      -1.04488206      -2.52093434        2      -3.66936459      -4.03474760       0.00426131
O        2.09142613      -1.54451299      -1.57714641        2       0.66744199      -1.19519926      -0.14849390
C        1.89760613      -2.98708797      -1.72157145        2       3.77103736       1.41900088      -1.32782567
H        1.30514014      -3.13057709      -3.81170249        2       1.85986766      -1.47484078       0.99171632
H        3.03420115      -4.06249380      -3.52643442        2      -1.73908651       1.05556872       0.05645937
O        3.41751218       0.01574698      -2.43227243        2       1.80534238       3.30115125       0.33461735
H        0.90290713      -3.12530494      -1.34257340        2      -0.21294624      -0.93083939      -0.61539545
H        2.63837409      -3.52872992      -1.04472041        2      -1.42787323       0.73316263      -1.26076518
31
Lattice="100.0 0.0 0.0 0.0 100.0 0.0 0.0 0.0 100.0" Properties=species:S:1:pos:R:3:molID:I:1:forces:R:3 Nmols=2 Comp=DEC(1):PC(1) energy=-1411.2190969592214 pbc="T T T"