77
Properties=species:S:1:pos:R:3:molID:I:1:forces:R:3 Nmols=6 Comp=DEC(1):DMC(2):EC(2):EMC(1) energy=-3734.5224351217 pbc="F F F"
C       -1.83385191       1.12909904      -5.27613973        0       0.74159170       0.25829877       6.00325661
O       -1.84544096       1.46962502      -4.08675813        0      -1.00212129       0.03865793      -1.45024268
O       -0.81386599       1.47580007      -5.98193979        0       2.63780500       0.87462367      -2.98988065
O       -2.59086690       0.21176207      -5.77056789        0      -0.72309598      -0.13258193      -2.20243772
C        0.20941499       2.36939910      -5.45872688        0      -3.31064105       2.16736115      -1.18702687
C       -3.81860003      -0.19891795      -5.26081276        0      -2.05130583       2.61084709      -3.36510644
H        0.80830398       2.90585497      -6.22674083        0      -0.92751367      -0.51974645      -0.01452271
H       -0.43291500       3.20440104      -4.97875213        0       1.37039671      -1.31462203      -0.28938612
H        0.91850897       1.85523894      -4.91552973        0       0.82988894      -1.20621696       1.71579346
H       -4.38113103      -0.59572596      -6.14403677        0       0.88579704       0.12117776      -0.07494245
H       -3.74950680      -0.95236996      -4.64341974        0       1.17063842      -4.00982720       3.54585566
H       -4.57596097       0.47631904      -4.82629776        0      -0.07549928       1.87423906       0.51644857
C        0.93029276      -1.72367896       4.76980173        1      -2.09374853       2.48036244      -0.57984508
O        1.70018986      -2.79686798       5.02000247        1       1.47368620      -1.28180293       0.76753975
C        2.70069674      -2.49618496       5.82866775        1       1.15263349      -0.25669916       2.08919938
O        2.56099371      -1.10588099       6.34901153        1      -1.71490941      -2.01590095      -1.79603381
C        1.28101782      -0.60152198       5.83027040        1      -0.00827444      -1.38827714       1.35487904
H        1.20347885      -1.30759300       3.78276264        1      -0.71035050      -1.31168959      -0.28236199
H       -0.15098518      -1.93216814       4.81819736        1       0.27109832      -0.00539792       0.46163557
O        3.49970678      -3.34180202       6.20364343        1      -1.48706160       2.45780522      -0.74613573
H        1.38214985       0.33114596       5.23239957        1       0.43110260       0.60411944       1.01406779
H        0.49058083      -0.50950404       6.69036447        1       1.54962813      -0.35976688      -1.44574131
C       -4.60754379       2.63073434      -1.18642231        2      -1.40188740      -2.49948219       1.31374749
O       -3.86599859       3.56218614      -0.95730635        2      -1.42166639      -1.68453806      -0.63476628
O       -5.11451897       1.62768712      -0.18845236        2      -0.07074699       2.49765475      -4.14934108
O       -5.24712166       2.21790232      -2.31521937        2       1.98129075       1.65356538       0.37797470
C       -4.60003265       1.74823417       1.06525466        2      -1.18991001       0.78057663       1.01534763
C       -5.03925499       2.96900930      -3.51630327        2      -1.15931598       0.98558782      -0.58150358
H       -4.77795299       0.83546521       1.58654371        2      -0.23134530      -0.56585560       0.87451220
H       -3.59713587       1.89867629       0.88943664        2       2.80014723       0.66220508      -0.57529027
H       -4.96085295       2.62628331       1.62135462        2      -0.14787223      -0.36807672      -0.05446130
H       -5.65068277       2.53123226      -4.35545226        2       0.44961194      -0.27571898       1.35941013
H       -5.26330265       4.03460016      -3.28051325        2      -0.85172491      -0.68273985       0.54043052
H       -4.08317455       3.16231622      -3.97079154        2       1.69460348      -1.26203934       0.30904661
C        3.70112078       3.70429236       0.08967109        3       7.11520737       1.04134203      -1.72626251
O        5.03244584       3.73635251      -0.11905291        3      -7.68773418      -0.76709645       1.49493518
O        2.81571381       2.67851359       0.19525609        3       1.85066710      -0.22875570      -1.22709022
O        3.08117788       4.85766751       0.07332309        3      -1.84784620      -0.21733414       1.13143759
C        3.26174681       1.36178142      -0.17558291        3      -0.87681096       1.76820942       0.12946732
C        3.68094962       6.17464835       0.18470508        3       1.85341655      -4.04108682       2.94780617
C        2.17372887       0.36188954       0.14077209        3      -2.23374432      -2.10690607       0.65304751
H        3.70850890       1.24178654      -1.19944086        3      -0.71641518       0.78454484      -0.31182756
H        4.13883154       1.14406353       0.45944009        3      -1.29233038       1.61583112      -0.79179061
H        4.36655466       6.29060132       1.11052105        3      -1.00561578      -0.30179998      -1.74890475
H        4.13625376       6.21272236      -0.72750893        3       2.53434543       0.68263204      -2.61697393
H        2.44238679      -0.67672247      -0.00996991        3       1.04645527       1.06474027      -0.23757720
H        2.12067168       0.27920658       1.24076614        3       1.92349784      -0.09915487       0.25779937
H        1.15490680       0.20842052      -0.37262192        3       1.34738038       1.93618034       0.59994286
H        2.87197583       6.77449852       0.18342509        3      -2.66237235       2.79539218       0.55343481
C        5.10740771      -0.50345900       1.02780885        4       0.89459940      -0.17129727      -4.61756466
O        4.35471501       0.31792398       1.84430677        4      -1.54851829       1.40115484       1.53484499
C        3.66636004      -0.37496701       2.74321681        4       1.92727385      -0.09370224      -0.23536404
O        4.15639367      -1.62193796       2.71895176        4       1.08661363      -1.52783467      -0.44402499
C        5.33145490      -1.71580001       1.74970180        4       0.82538974       0.93047410       2.77828680
H        4.34884992      -0.76027503       0.20811480        4       3.02586459      -2.71202547       0.87450334
H        5.97438874       0.04610899       0.46399480        4      -0.87328539      -0.36001874       1.51854104
O        2.83755984       0.03950299       3.53108698        4      -0.38305060       1.36419104      -0.60581495
H        5.30468001      -2.59577712       1.21560675        4      -1.53335312      -2.50106892      -1.20283713
H        6.40798774      -1.73028704       2.11489779        4      -1.50057705       0.90765368       0.46749433
C       -2.68539130      -3.23184506      -1.38702589        5      -0.51952735      -6.19526147       0.56450676
O       -2.17742836      -2.62260405      -2.23395889        5       0.60484301       1.74684175      -4.00057214
O       -2.49298536      -3.04796116      -0.13055485        5      -1.22151202      -0.35350348       2.50763992
O       -3.14275038      -4.62926118      -1.48948389        5      -1.59826772       3.16972255       1.56786862
C       -2.24853050      -1.72193925       0.28131015        5      -0.06999527       2.28828766       3.25021788
C       -3.28168141      -5.30291716      -2.69633477        5       2.62346759       3.41602170      -2.31874957
C       -2.26212441      -1.61312525       1.89669413        5      -2.10872717       0.83764424       1.04525413
H       -1.23248433      -1.42077510      -0.08426886        5      -1.02161480      -0.23368911       0.16808489
H       -3.07519137      -1.00592212      -0.00700385        5       1.17561668      -0.98775237      -0.29000939
C       -3.71914732      -6.73270623      -2.45487183        5      -8.29803875       1.79953738      -2.45899167
H       -3.72624027      -4.69143121      -3.60921686        5      -0.34715205      -2.24055016       3.18169019
H       -2.20245134      -5.10441129      -2.97845786        5      -0.38683062      -2.21105038      -0.92078394
H       -4.31953823      -7.13499419      -3.40754193        5       3.07129816       1.02636351       1.61124393
H       -3.22057950      -7.50558822      -1.96553295        5       1.39328485      -0.74084574       0.79313658
H       -4.82099544      -6.49050919      -1.89762276        5       4.20885635      -0.15860980      -0.68048771
H       -2.01573240      -0.65080420       2.42909104        5      -0.07442844      -0.67198022      -1.06026710
H       -3.19746839      -1.92080514       2.54010922        5       1.69757799       0.24843835      -2.35201836
H       -1.52192747      -2.27279417       2.24705607        5       0.74116297      -0.82998128      -0.62339082
77
Properties=species:S:1:pos:R:3:molID:I:1:forces:R:3 Nmols=6 Comp=DEC(1):DMC(2):EC(2):EMC(1) energy=-3735.1228919701125 pbc="F F F"
C       -1.89711549       1.16727947      -5.46392165        0       0.72862141       0.24011130       6.02444875
O       -1.90870454       1.50780545      -4.27454005        0      -0.92866402       0.04954231      -1.50677295
O       -0.87712957       1.51398050      -6.16972171        0       2.65254662       0.86754493      -2.99495487
O       -2.65413048       0.24994250      -5.95834981        0      -0.68335440      -0.14503408      -2.22165256
C        0.14615141       2.40757953      -5.64650880        0      -3.32728697       2.15555893      -1.17448270
C       -3.88186361      -0.16073752      -5.44859468        0      -2.21676829       2.65568453      -3.29628247
H        0.74504040       2.94403540      -6.41452275        0      -0.92751367      -0.51974645      -0.01452271
H       -0.49617858       3.24258147      -5.16653405        0       1.33470346      -1.34705150      -0.26622544
H        0.85524539       1.89341937      -5.10331165        0       0.81325176      -1.20873071       1.72092407
H       -4.44439461      -0.55754553      -6.33181869        0       0.85959626       0.24359813       0.00405624
H       -3.81277038      -0.91418953      -4.83120166        0       1.15948995      -3.93103310       3.54957414
H       -4.63922455       0.51449947      -5.01407968        0       0.15458409       1.40431877       0.32554656
C        1.00515537      -1.79498071       4.97058436        1      -1.94837669       2.69340969      -0.80031885
O        1.77505247      -2.86816973       5.22078510        1       1.47782123      -1.27036929       0.79367188
C        2.77555935      -2.56748671       6.02945038        1       1.14686713      -0.25016600       2.07974711
O        2.63585632      -1.17718274       6.54979416        1      -1.77661024      -1.97789233      -1.84065071
C        1.35588043      -0.67282373       6.03105303        1       0.24412114      -1.26315126       1.09435860
H        1.27834146      -1.37889475       3.98354527        1      -0.48021377      -1.34089393      -0.22744238
H       -0.07612257      -2.00346989       5.01897999        1       0.23851680      -0.07156272       0.39147724
O        3.57456939      -3.41310377       6.40442606        1      -1.48706160       2.45780522      -0.74613573
H        1.45701246       0.25984421       5.43318220        1       0.43319113       0.52566821       1.08177068
H        0.56544344      -0.58080579       6.89114710        1       1.55736146      -0.28530187      -1.44639972
C       -4.77557771       2.71802684      -1.22835401        2      -1.40174183      -2.49847620       1.30401314
O       -4.03403251       3.64947864      -0.99923805        2      -1.42214176      -1.68479899      -0.63581250
O       -5.28255289       1.71497962      -0.23038406        2      -0.07091972       2.49768488      -4.14901668
O       -5.41515558       2.30519482      -2.35715107        2       2.00258486       1.58044057       0.44189309
C       -4.76806657       1.83552667       1.02332296        2      -1.18968518       0.78051240       1.01548268
C       -5.20728891       3.05630180      -3.55823497        2      -1.20711868       1.26205318      -0.53509813
H       -4.94598691       0.92275771       1.54461201        2      -0.22857709      -0.56931670       0.87133175
H       -3.76516979       1.98596879       0.84750494        2       2.80026828       0.66196841      -0.57546366
H       -5.12888687       2.71357581       1.57942292        2      -0.14793852      -0.36769461      -0.05448234
H       -5.81871669       2.61852476      -4.39738396        2       0.55757648      -0.20980647       1.32482298
H       -5.43133657       4.12189266      -3.32244495        2      -0.83789350      -0.74069726       0.52783653
H       -4.25120847       3.24960872      -4.01272324        2       1.52638046      -1.17663228       0.31483706
C        3.82155395       3.82044001       0.09169893        3       7.09034495       1.01565046      -1.73518829
O        5.15287901       3.85250016      -0.11702507        3      -7.68681654      -0.75915506       1.49238980
O        2.93614698       2.79466124       0.19728393        3       1.61151003      -0.08989558      -1.09038545
O        3.20161105       4.97381516       0.07535093        3      -1.84784620      -0.21733414       1.13143759
C        3.38217998       1.47792907      -0.17355507        3       0.33369038       0.68531654       0.71471541
C        3.80138279       6.29079600       0.18673292        3       1.85341655      -4.04108682       2.94780617
C        2.29416204       0.47803719       0.14279993        3      -2.17655307      -2.15553505       0.37965113
H        3.82894207       1.35793419      -1.19741302        3      -0.88110408       0.93773031      -0.25647403
H        4.25926471       1.26021118       0.46146793        3      -1.48521757       1.65492468      -0.70760194
H        4.48698783       6.40674897       1.11254889        3      -1.00561578      -0.30179998      -1.74890475
H        4.25668693       6.32887001      -0.72548109        3       2.53434543       0.68263204      -2.61697393
H        2.56281996      -0.56057482      -0.00794207        3       1.12074947       0.91960167      -0.39974171
H        2.24110485       0.39535423       1.24279398        3       1.43610350       0.17488228       0.38904740
H        1.27533997       0.32456817      -0.37059408        3       1.37820449       1.76677331       0.55752562
H        2.99240900       6.89064617       0.18545293        3      -2.66237235       2.79539218       0.55343481
C        5.25752347      -0.52617391       1.10819517        4       1.38083135      -0.92766843      -4.51580994
O        4.50483077       0.29520907       1.92469309        4      -1.39750017       2.11840374       0.74869371
C        3.81647580      -0.39768192       2.82360313        4       0.67703629      -0.21437908       0.73316774
O        4.30650943      -1.64465287       2.79933808        4       0.99824576      -1.13128517      -0.50764584
C        5.48157066      -1.73851492       1.83008812        4       0.69944426       1.11605444       2.87458589
H        4.49896568      -0.78298994       0.28850112        4       2.39116320      -1.99399641       1.00819582
H        6.12450450       0.02339408       0.54438112        4      -1.19557339      -0.15293902       1.38866406
O        2.98767560       0.01678808       3.61147330        4       0.49371553       0.58779987      -1.07150572
H        5.45479577      -2.61849203       1.29599307        4      -1.57556205      -2.53104217      -1.16468553
H        6.55810350      -1.75300195       2.19528411        4      -1.49025660       0.84340966       0.51552383
C       -2.78287020      -3.35980008      -1.42325358        5      -0.51902663      -6.19421334       0.56572412
O       -2.27490726      -2.75055907      -2.27018658        5       0.60643767       1.74910757      -3.99625458
O       -2.59046426      -3.17591618      -0.16678254        5      -1.21899038      -0.35061192       2.50713043
O       -3.24022928      -4.75721620      -1.52571158        5      -1.59826772       3.16972255       1.56786862
C       -2.34600940      -1.84989427       0.24508246        5      -0.08199128       2.28204323       3.24735380
C       -3.37916031      -5.43087218      -2.73256246        5       2.62346759       3.41602170      -2.31874957
C       -2.35960331      -1.74108027       1.86046644        5      -2.11579448       0.83763157       1.05757319
H       -1.32996323      -1.54873012      -0.12049655        5      -0.88106212      -0.14569993       0.12919422
H       -3.17267027      -1.13387714      -0.04323154        5       1.16432302      -0.98501600      -0.28766730
C       -3.81662622      -6.86066125      -2.49109952        5      -8.29803875       1.79953738      -2.45899167
H       -3.82371917      -4.81938623      -3.64544455        5      -0.34715205      -2.24055016       3.18169019
H       -2.29993024      -5.23236631      -3.01468555        5      -0.38683062      -2.21105038      -0.92078394
H       -4.41701713      -7.26294921      -3.44376962        5       3.07129816       1.02636351       1.61124393
H       -3.31805840      -7.63354324      -2.00176064        5       1.39328485      -0.74084574       0.79313658
H       -4.91847434      -6.61846421      -1.93385045        5       4.20885635      -0.15860980      -0.68048771
H       -2.11321130      -0.77875922       2.39286335        5      -0.07450966      -0.66979249      -1.05836086
H       -3.29494729      -2.04876016       2.50388153        5       1.69604576       0.24907989      -2.35122657
H       -1.61940637      -2.40074919       2.21082838        5       0.75795026      -0.83311764      -0.58839287
77
Properties=species:S:1:pos:R:3:molID:I:1:forces:R:3 Nmols=6 Comp=DEC(1):DMC(2):EC(2):EMC(1) energy=-3735.7212753950716 pbc="F F F"
C       -1.96262001       1.20681233      -5.65835523        0       0.71376882       0.23489370       6.02991529
O       -1.97420906       1.54733831      -4.46897363        0      -0.85314254       0.00648620      -1.52614022
O       -0.94263409       1.55351336      -6.36415529        0       2.65441432       0.86646149      -2.99493928
O       -2.71963500       0.28947536      -6.15278339        0      -0.68340792      -0.14756791      -2.21868402
C        0.08064689       2.44711239      -5.84094238        0      -3.33085285       2.15325627      -1.17189331
C       -3.94736813      -0.12120466      -5.64302826        0      -2.34688527       2.66025503      -3.24129465
H        0.67953588       2.98356826      -6.60895633        0      -0.92751367      -0.51974645      -0.01452271
H       -0.56168310       3.28211433      -5.36096763        0       1.32853654      -1.35303405      -0.26227173
H        0.78974087       1.93295223      -5.29774523        0       0.81022745      -1.20918784       1.72185023
H       -4.50989913      -0.51801267      -6.52625227        0       0.83222274       0.34102920       0.04493554
H       -3.87827490      -0.87465667      -5.02563524        0       1.15593316      -3.87718584       3.57975399
H       -4.70472907       0.55403233      -5.20851326        0       0.41520922       1.12342416       0.18698196
C        1.08266978      -1.86880812       5.17847916        1      -2.03877106       2.70268336      -0.74899761
O        1.85256688      -2.94199714       5.42867990        1       1.49213133      -1.26977275       0.80884439
C        2.85307376      -2.64131412       6.23734518        1       1.13855551      -0.24491679       2.06926645
O        2.71337073      -1.25101015       6.75768896        1      -1.84379893      -1.94313622      -1.89373124
C        1.43339484      -0.74665114       6.23894783        1       0.26454793      -1.35885020       1.16437885
H        1.35585587      -1.45272216       4.19144007        1      -0.36023882      -1.16446758      -0.13833654
H        0.00139184      -2.07729730       5.22687479        1       0.24003613      -0.13963158       0.35170351
O        3.65208380      -3.48693118       6.61232086        1      -1.48706160       2.45780522      -0.74613573
H        1.53452687       0.18601680       5.64107700        1       0.34385319       0.46768399       1.16907201
H        0.64295785      -0.65463320       7.09904190        1       1.56519913      -0.20701273      -1.45353888
C       -4.94956378       2.80841144      -1.27177102        2      -1.40157878      -2.49832974       1.30314614
O       -4.20801858       3.73986324      -1.04265506        2      -1.42214692      -1.68480186      -0.63582387
O       -5.45653896       1.80536422      -0.27380107        2      -0.07091972       2.49768488      -4.14901668
O       -5.58914165       2.39557942      -2.40056808        2       1.99937149       1.52756512       0.52197449
C       -4.94205264       1.92591127       0.97990595        2      -1.18968518       0.78051240       1.01548268
C       -5.38127498       3.14668640      -3.60165198        2      -1.20378130       1.28687750      -0.67324103
H       -5.11997298       1.01314231       1.50119500        2      -0.22857709      -0.56931670       0.87133175
H       -3.93915586       2.07635339       0.80408793        2       2.80026828       0.66196841      -0.57546366
H       -5.30287294       2.80396041       1.53600591        2      -0.14793852      -0.36769461      -0.05448234
H       -5.99270276       2.70890936      -4.44080097        2       0.54872677      -0.02796791       1.38009940
H       -5.60532264       4.21227726      -3.36586196        2      -0.83638779      -0.76754209       0.53415840
H       -4.42519454       3.33999332      -4.05614025        2       1.38413876      -1.11803937       0.32814362
C        3.94625314       3.94070187       0.09379861        3       7.07018876       1.08094169      -1.75415790
O        5.27757820       3.97276202      -0.11492539        3      -7.69090720      -0.76210003       1.49206012
O        3.06084617       2.91492310       0.19938361        3       1.41545221       0.02132908      -0.98267759
O        3.32631024       5.09407702       0.07745061        3      -1.84784620      -0.21733414       1.13143759
C        3.50687917       1.59819093      -0.17145539        3       0.85605072       0.30899377       0.57026587
C        3.92608198       6.41105786       0.18883260        3       1.85341655      -4.04108682       2.94780617
C        2.41886123       0.59829905       0.14489961        3      -2.12995776      -2.19905077       0.10217733
H        3.95364126       1.47819605      -1.19531334        3      -1.03104991       0.82930440      -0.12101274
H        4.38396390       1.38047304       0.46356761        3      -1.44535583       1.56889551      -0.85182703
H        4.61168702       6.52701083       1.11464857        3      -1.00561578      -0.30179998      -1.74890475
H        4.38138612       6.44913187      -0.72338141        3       2.53434543       0.68263204      -2.61697393
H        2.68751915      -0.44031296      -0.00584239        3       1.21026252       0.71965399      -0.49839402
H        2.36580404       0.51561609       1.24489366        3       0.68329824       0.71134844       0.15174956
H        1.40003916       0.44483003      -0.36849440        3       1.48192416       1.67684261       0.53230946
H        3.11710819       7.01090803       0.18755261        3      -2.66237235       2.79539218       0.55343481
C        5.41295666      -0.54969343       1.19142895        4       1.96801222      -1.51654404      -4.33551666
O        4.66026396       0.27168955       2.00792687        4      -0.90493137       2.36076294       0.65535338
C        3.97190899      -0.42120144       2.90683691        4      -0.15731169      -0.31676295       2.37504827
O        4.46194262      -1.66817239       2.88257186        4       1.10234973      -1.10594605      -0.55320398
C        5.63700385      -1.76203444       1.91332190        4       0.69688960       1.16686780       2.91035639
H        4.65439887      -0.80650946       0.37173490        4       1.74824761      -0.95170531       0.76781024
H        6.27993769      -0.00012544       0.62761490        4      -1.49416307       0.00880958       1.27826086
O        3.14310879      -0.00673144       3.69470708        4       1.47413843       0.06246290      -2.03102778
H        5.61022896      -2.64201155       1.37922685        4      -1.52155873      -2.62182350      -1.07754016
H        6.71353669      -1.77652147       2.27851789        4      -1.51795910       0.73953191       0.52064129
C       -2.88380203      -3.49228756      -1.46076453        5      -0.51902663      -6.19421334       0.56572412
O       -2.37583909      -2.88304655      -2.30769753        5       0.60643767       1.74910757      -3.99625458
O       -2.69139609      -3.30840366      -0.20429349        5      -1.21899038      -0.35061192       2.50713043
O       -3.34116111      -4.88970368      -1.56322253        5      -1.59826772       3.16972255       1.56786862
C       -2.44694123      -1.98238175       0.20757151        5      -0.08199128       2.28204323       3.24735380
C       -3.48009214      -5.56335966      -2.77007341        5       2.62346759       3.41602170      -2.31874957
C       -2.46053514      -1.87356775       1.82295549        5      -2.11579448       0.83763157       1.05757319
H       -1.43089506      -1.68121760      -0.15800750        5      -0.88106212      -0.14569993       0.12919422
H       -3.27360210      -1.26636462      -0.08074249        5       1.16432302      -0.98501600      -0.28766730
C       -3.91755805      -6.99314873      -2.52861047        5      -8.29803875       1.79953738      -2.45899167
H       -3.92465100      -4.95187371      -3.68295550        5      -0.34715205      -2.24055016       3.18169019
H       -2.40086207      -5.36485379      -3.05219650        5      -0.38683062      -2.21105038      -0.92078394
H       -4.51794896      -7.39543669      -3.48128057        5       3.07129816       1.02636351       1.61124393
H       -3.41899023      -7.76603072      -2.03927159        5       1.39328485      -0.74084574       0.79313658
H       -5.01940617      -6.75095169      -1.97136140        5       4.20885635      -0.15860980      -0.68048771
H       -2.21414313      -0.91124670       2.35535240        5      -0.07450966      -0.66979249      -1.05836086
H       -3.39587912      -2.18124764       2.46637058        5       1.69604576       0.24907989      -2.35122657
H       -1.72033820      -2.53323667       2.17331743        5       0.75795026      -0.83311764      -0.58839287
77
Properties=species:S:1:pos:R:3:molID:I:1:forces:R:3 Nmols=6 Comp=DEC(1):DMC(2):EC(2):EMC(1) energy=-3736.299136023525 pbc="F F F"
C       -2.03044485       1.24774554      -5.85967609        0       0.70181265       0.23327473       6.03212715
O       -2.04203390       1.58827152      -4.67029449        0      -0.85306011       0.00651607      -1.52611796
O       -1.01045893       1.59444657      -6.56547615        0       2.65441432       0.86646149      -2.99493928
O       -2.78745984       0.33040857      -6.35410425        0      -0.71794208      -0.14540581      -2.20160401
C        0.01282205       2.48804560      -6.04226324        0      -3.33085285       2.15325627      -1.17189331
C       -4.01519297      -0.08027145      -5.84434912        0      -2.40210226       2.63050397      -3.22000321
H        0.61171104       3.02450147      -6.81027719        0      -0.92751367      -0.51974645      -0.01452271
H       -0.62950794       3.32304754      -5.56228849        0       1.32853654      -1.35303405      -0.26227173
H        0.72191603       1.97388544      -5.49906609        0       0.81022745      -1.20918784       1.72185023
H       -4.57772397      -0.47707946      -6.72757313        0       0.81394577       0.37914402       0.03776066
H       -3.94609974      -0.83372346      -5.22695610        0       1.16848839      -3.87478351       3.61695483
H       -4.77255391       0.59496554      -5.40983412        0       0.64561612       0.96832663       0.05937118
C        1.16292992      -1.94525067       5.39373806        1      -2.08332451       2.73551831      -0.63063298
O        1.93282702      -3.01843969       5.64393880        1       1.51663000      -1.25843880       0.82350041
C        2.93333390      -2.71775667       6.45260408        1       1.12531433      -0.23591570       2.05215959
O        2.79363087      -1.32745270       6.97294786        1      -1.89590254      -1.91706314      -1.95940372
C        1.51365498      -0.82309369       6.45420673        1       0.31769792      -1.49227094       1.13301901
H        1.43611601      -1.52916471       4.40669897        1       0.06731647      -0.66238981      -0.21340037
H        0.08165198      -2.15373985       5.44213369        1       0.25773916      -0.19947537       0.30063271
O        3.73234394      -3.56337373       6.82757976        1      -1.48706160       2.45780522      -0.74613573
H        1.61478701       0.10957425       5.85633590        1       0.35979336       0.40997509       1.08681151
H        0.72321799      -0.73107575       7.31430080        1       1.58068804      -0.14541787      -1.46903184
C       -5.12971282       2.90199766      -1.31672595        2      -1.40157878      -2.49832974       1.30314614
O       -4.38816762       3.83344946      -1.08760999        2      -1.42214692      -1.68480186      -0.63582387
O       -5.63668800       1.89895044      -0.31875600        2      -0.07091972       2.49768488      -4.14901668
O       -5.76929069       2.48916564      -2.44552301        2       1.98588207       1.51227907       0.56605097
C       -5.12220168       2.01949749       0.93495102        2      -1.18968518       0.78051240       1.01548268