23
Properties=species:S:1:pos:R:3:molID:I:1:forces:R:3 Nmols=2 Comp=EMC(1):VC(1) energy=-1208.802734375 pbc="F F F"
C        1.40669906      -0.94852668       1.34895813        0       2.04183292      -1.37450004       1.36544371
O        2.40962720      -1.28579569       1.94060218        0      -1.04496598      -0.02388293       0.72006226
O        0.12933208      -1.04362166       1.73212218        0       0.90590823       0.11461645      -1.08975291
O        1.47688103      -0.50123066       0.16977718        0      -1.59296322       1.75485849      -3.91156673
C       -0.04094892      -1.35957861       3.04710722        0      -2.12611771      -3.73824596       2.09332752
C        2.63086009      -0.44012067      -0.69729584        0       0.20044398      -0.33094069       1.24979687
C       -1.63370895      -1.50622070       3.27897310        0       1.43562436       3.08295155      -5.89038372
H        0.40394607      -2.40141869       3.38785219        0      -0.61199248       1.38107216      -1.05565476
H        0.45089409      -0.68009967       3.66465807        0       0.32489049       1.56536782       1.28602374
H        3.36547112       0.15588234      -0.10162982        0      -0.07065111      -0.47009236      -0.92013311
H        2.91504097      -1.48023367      -0.91267079        0       0.33194622       0.24975431       0.25458670
H       -1.94975197      -1.75659466       4.21205616        0      -0.54147643      -1.27161229       1.87864518
H       -2.05149293      -0.44585866       3.06940317        0       0.53184104      -1.30909348       0.66125131
H       -1.99269390      -2.01510978       2.26033020        0       0.38051048       0.17539394       2.71015549
H        2.40328908      -0.00330166      -1.68040287        0      -0.19421452       0.21958733       0.63207006
C       -1.72449291       1.32071137      -0.47724482        1      -2.59482002      -2.42902946       1.30861473
O       -0.49731091       1.17084932      -0.94350183        1       2.21965694       1.13969278       0.87957597
C       -0.59555292       1.32678330      -2.25614190        1       4.57962036      -0.91257834      -4.09773636
O       -1.80939388       1.20327735      -2.66971779        1      -2.99908972      -0.74985301       0.71762109
C       -2.54717183       0.93277031      -1.49749577        1      -2.12559938       2.89332175      -1.37132168
O        0.29996908       1.35905635      -3.09270382        1      -0.91510630       0.43060845       2.31694007
H       -3.61379600       1.21128833      -1.72711182        1       1.39479780      -0.94865251       0.87301755
H       -1.99838686       1.11892533       0.56570417        1       0.46992356       0.55125576      -0.61058265
23
Properties=species:S:1:pos:R:3:molID:I:1:forces:R:3 Nmols=2 Comp=EMC(1):VC(1) energy=-1208.23974609375 pbc="F F F"
C       -0.69763237       2.77908134       1.23040593        0      -3.38725305       3.13575721      -0.49292460
O        0.41091162       2.90825939       0.90179396        0       3.24713755      -1.89835620      -0.24131078
O       -1.54747343       1.82928336       1.18552589        0      -1.07308769      -0.04160666       0.86916971
O       -1.47622144       3.99724841       1.42502689        0       1.32989240      -1.94485664      -0.12319255
C       -1.05164540       0.55792034       1.01647294        0       2.89865780      -1.20754194       0.17147568
C       -0.58076239       5.05312920       1.23254991        0      -0.44219613       0.87055564       1.68868089
C       -2.08044529      -0.48666269       1.21495795        0      -0.34446704      -1.37967408       1.59188509
H       -0.58454442       0.48634732       0.04012394        0      -0.08935848      -0.02263147      -0.84236741
H       -0.13467740       0.35334331       1.69473493        0      -1.17989063       0.43700233      -0.19603181
H       -0.06260440       5.23490810       2.17521095        0       0.15685639       0.14994854       0.20209306
H        0.14888860       4.83289528       0.50576496        0       0.48996559      -0.04112422      -0.92843366
H       -1.73312235      -1.46158373       0.79107195        0       0.16796070       0.50976604       1.15963519
H       -2.35824633      -0.45531067       2.34884787        0       0.32115889      -0.65137565      -2.05664825
H       -2.94100738      -0.36219668       0.61415994        0      -1.21115184       0.75060940      -0.27465069
H       -1.12611735       5.90846729       0.99187595        0      -0.88422483       1.33352804      -0.52737957
C       -0.08214340      -3.62099671      -1.75664902        1       3.70180082      -1.51835179      -0.00293601
O        0.70271158      -2.58156061      -2.27889895        1      -4.27680635      -0.74472296       0.31547701
C        1.51702058      -2.24412274      -1.30315304        1       2.68396807      -2.76685572      -1.73136234
O        1.84426665      -3.32881665      -0.58488607        1      -3.33499384      -2.89425731      -0.11513472
C        0.80931163      -4.41899586      -1.06022000        1       0.30978525       3.04919004       2.02049971
O        2.26134372      -1.36615074      -1.48889709        1       1.51282179       3.40731263       1.02852190
H        0.68980759      -5.35269451      -0.45185906        1       0.42788988       1.35594833      -0.97241318
H       -0.94944340      -3.98191357      -2.21206117        1      -1.02446592       0.11173673      -0.54265225
22
Properties=species:S:1:pos:R:3:molID:I:1:forces:R:3 Nmols=2 Comp=DMC(1):EC(1) energy=-1152.7711181640625 pbc="F F F"
C        3.61284208      -2.07550406       0.22518750        0      -1.89996839      -1.20799494      -1.45492673
C        3.75244713      -3.59650588       0.06730349        0       0.72794139       0.19107842      -1.42664099
O        3.49376106      -3.82976699      -1.34206152        0       0.42357743       0.16184151       1.19891441
C        3.66125512      -2.66054893      -1.99677956        0      -1.72984767      -0.85980356      -1.75214422
O        3.62495208      -2.64322686      -3.21021342        0       0.58321303       0.66902304       2.23288393
O        3.58672094      -1.63819695      -1.13761151        0       1.02812958       0.56308353      -0.11415219
H        2.69311810      -1.68178594       0.65247649        0      -0.21388453      -0.31524709       0.13124724
H        4.39196014      -1.77501500       0.83347249        0       1.74100089       1.17061329       0.66095287
H        4.79914284      -3.87108588       0.18849850        0       0.31797940      -0.02993831       0.22581173
H        3.20638895      -4.23945999       0.70763350        0      -0.97814107      -0.34265569       0.29805437
C       -3.46759295       0.39978606       1.80026948        1       1.59216583       0.04705000       0.20551938
O       -2.97357607       1.54546702       1.06417453        1      -1.40186071       0.62560999       0.17853284
C       -3.68755794       2.70816302       1.22221446        1       0.41177332      -0.82240874       0.38139629
O       -4.68780279       2.74251199       1.89068353        1       0.58244753       0.60207450      -0.69484794
O       -3.02453804       3.67995095       0.56466550        1      -0.13037097      -1.63357544       0.10496265
C       -3.40832901       5.01135302       0.69437551        1      -0.49043953       1.39240849       0.05656906
H       -2.75606489      -0.34492496       1.41046655        1      -0.48514450      -0.07993513       0.29353279
H       -3.22423792       0.57276303       2.88537145        1      -0.57328868      -0.18329608      -0.78724390
H       -4.49957609       0.04107006       1.62627149        1       0.47589898       0.72889447      -0.06622759
H       -3.64559507       5.22525692       1.76454043        1      -0.21765733       0.04163767      -0.65943635
H       -2.52239585       5.64242887       0.43704748        1      -0.67987448      -0.51133579      -0.01113850
H       -4.26611900       5.24361420      -0.02387951        1       0.91634959      -0.20712441       0.99838096
10
Properties=species:S:1:pos:R:3:molID:I:1:forces:R:3 Nmols=1 Comp=EC(1) energy=-562.1713256835938 pbc="F F F"
C        0.04702185       0.83415061      -1.35688162        0      -0.05365741       0.41850507      -1.65602148
O       -0.50411916       0.92041564      -0.09821067        0      -1.82965314       1.23382258       0.50064790
C       -0.22546014      -0.08585037       0.71164131        0      -0.00748247       0.65377057       2.73626113
O        0.56264788      -0.94790435       0.08703933        0       0.40683413      -1.15956485       0.58600283
C        0.66519684      -0.67460239      -1.26913261        0      -1.68120265       1.74079037      -1.24577332
H       -0.69738817       1.32375765      -2.22990465        0       1.40630925      -1.99439073       1.96561968
H        0.84714788       1.58321857      -1.37349868        0       0.35454553      -0.39678127      -0.19296032
O       -0.53938913      -0.08326737       1.89579630        0       0.68229896      -0.50870454      -2.93826962
H        0.02858885      -1.36701536      -1.84039462        0       0.18588805       0.20079023       0.09920843
H        1.65750480      -0.65968937      -1.67245662        0       0.53611958      -0.18823767       0.14528398
34
Properties=species:S:1:pos:R:3:molID:I:1:forces:R:3 Nmols=3 Comp=DEC(1):VC(2) energy=-1828.193115234375 pbc="F F F"
C       -0.09173039      -1.03795123       1.13215828        0       0.32933915       1.97205877       0.18871608
O        0.66122359       0.21716379       1.06796718        0      -1.59293556      -2.61148167       0.01205085
C        2.00051570      -0.15963122       1.04819417        0      -5.48215580      -1.70299506       0.11931054
O        2.12524271      -1.43898916       1.02832723        0      -1.41690469      -2.53199768      -0.28916377
C        0.82325763      -1.99034119       1.03538823        0       1.38297951      -3.18000412       0.18851668
O        2.79736471       0.62670475       1.13556421        0       5.69953251       4.93154907       0.28157875
H        0.89998060      -3.19638634       1.03570819        0      -0.72446990       3.27189326      -0.02584034
H       -1.19878638      -0.96512020       1.35657227        0       1.78841674      -0.13898325      -0.50217557
C       -0.41216639       2.13632989      -4.04738474        1      -3.30453467       0.29799724       1.68726993
O       -1.54790235       1.62400174      -3.95587182        1       3.27677584       0.94376373      -0.41103646
O        0.27796960       2.39783573      -5.12207270        1       0.29816890      -0.44214869      -0.30239952
O        0.20427561       2.77221179      -3.01263165        1      -0.37419581       0.50915444      -0.64061892
C       -0.13921839       1.75725079      -6.37238789        1      -0.02661800       2.33357358       0.57661319
C       -0.32927039       2.62372971      -1.66351080        1       0.72365642      -1.86759186      -0.50252271
C        1.19375861       1.73544383      -7.19138670        1      -2.01276684      -0.42128006       0.11830938
H       -0.50711936       0.80607575      -6.08773184        1      -0.05403282      -1.36837876      -0.28458184
H       -1.02609134       2.38092375      -6.65819073        1       0.95257580      -0.35509944      -0.85455477
C        0.74890864       3.15720272      -0.68642378        1       0.37596178       3.43671083      -1.57271743
H       -1.45247042       2.74032784      -1.61172080        1       1.21384835       1.08524656       0.33019453
H       -0.24573039       1.54906976      -1.64900982        1      -0.07751315      -1.01712584       1.20971811
H        0.41137761       3.41774178       0.31939122        1      -0.49069503      -0.26815128      -0.50773573
H        1.72883761       2.71294188      -0.58148378        1      -0.40060216      -1.21616387      -0.23273358
H        1.13165760       4.14930296      -1.22746277        1      -1.15815365      -1.44608831       1.14663517
H        0.91526759       1.30510473      -8.22597790        1       1.06641459       0.70615715       1.79082704
H        1.72747660       2.70354986      -7.21263790        1      -0.66351509      -0.35992408      -0.50173026
H        1.76877558       1.13842678      -6.47950077        1       0.65455949      -0.54933071      -1.05001688
C       -1.03568435      -1.24044025       5.12450600        2      -2.54845214      -3.64580131       0.21241009
O       -0.75859940      -1.73307025       3.81813025        2      -2.03927851       0.19916689       4.31707907
C       -1.41239440      -2.91287422       3.89505816        2       0.64903373      -1.86309469      -2.38664103
O       -2.24688435      -3.16512823       4.90641403        2       1.11828506       2.94556642       1.80659330
C       -1.91975343      -2.14320517       5.82747746        2       2.19581509       1.69814074      -3.83132792
O       -1.15433335      -3.77282715       3.12227416        2       0.06804013      -0.86014700      -1.14578116
H       -2.43766642      -2.04236126       6.73720312        2      -0.25924683      -0.02018568       0.53401035
H       -0.57101941      -0.39238423       5.46437836        2       0.83266842       1.53499448       0.52174371
32
Properties=species:S:1:pos:R:3:molID:I:1:forces:R:3 Nmols=4 Comp=VC(4) energy=-2135.947998046875 pbc="F F F"
C       -0.18384601       2.39934206       2.87055969        0      -0.06368959       1.21026814       1.06181574
C       -1.00316405       3.14677811       2.14002562        0      -1.03986907       0.65665269      -0.28566006
O       -1.17628205       4.41016912       2.71089673        0       1.62045360      -1.98092520      -0.83797711
C       -0.12086101       4.43738317       3.60548162        0      -1.45386434       3.16320539       1.58290935
O        0.24541499       5.47160482       4.09773779        0       0.05177283      -1.21847653      -0.55957228
O        0.23488699       3.22132993       3.93537164        0       0.85828632      -1.67256975      -0.96921229
H        0.13492399       1.39397001       2.76868176        0       0.31786203      -0.39883047       0.25373054
H       -1.47591197       2.87969899       1.22259974        0      -0.36356753       0.44430086      -0.08403379
C        0.02037599       0.48658204      -1.62798727        1       0.55031019      -0.00657240       0.49508047
C       -0.25892201       1.33652198      -0.61137629        1      -0.52259827      -0.22372329      -0.22484297
O       -0.10946101       2.66759610      -1.08563530        1      -0.35903376      -1.71810520       0.55187327
C        0.27459899       2.57405710      -2.36491919        1       0.89087999      -0.66360915      -0.34687722
O        0.59739196       3.44374299      -3.10663629        1      -0.43903196      -0.04132843       0.41158056
O        0.39864299       1.23445106      -2.70981741        1      -0.47471929      -0.12494677       0.37060952
H        0.15245000      -0.63944596      -1.63558424        1       0.20264874       3.03873158      -0.78146392
H       -0.70971900       1.02950001       0.36996269        1       0.75263608       0.72669864      -1.33960032
C       -1.53499103      -2.18794107      -0.83939826        2       3.19152212      -1.54661059      -0.74775088
C       -2.65085101      -1.52059495      -0.90405232        2       0.29424858       3.07259178       1.40251017
O       -3.64232898      -2.19272709      -1.38567626        2      -1.71106684      -1.81958008      -1.16629303
C       -3.10100198      -3.38501406      -1.74439335        2      -0.72793895      -2.17191291      -0.85027874
O       -3.65989709      -4.32537079      -2.21766233        2      -0.37200594       0.63545799       0.07623279
O       -1.79078305      -3.43165493      -1.46657932        2       0.83319622       1.73477340       1.14600575
H       -0.46613801      -1.84036899      -0.73343331        2      -2.08934474      -1.74870634       0.56761909
H       -2.85133791      -0.50869095      -0.68429327        2      -0.06588566       0.71467018       0.27469233
C        2.04542804      -1.78058195       0.30450469        3      -1.02523255       0.96848559      -0.94862336
C        2.20972991      -2.20262599      -0.92132527        3       1.03106773      -0.97578901      -2.59819746
O        3.13455200      -3.29267287      -0.90597731        3      -1.77052164       1.39289427      -1.44193017
C        3.29816103      -3.54355001       0.35827771        3       1.39768672      -0.70661992       1.42331171
O        3.92212296      -4.43347120       0.83328068        3      -0.05260682      -0.22286892       0.05506039
O        2.71428394      -2.55500293       1.09104776        3       1.21468973      -1.53919733       3.26997948
H        1.47149301      -1.03928494       0.75463468        3      -0.65879619       1.00186062       0.41489655
H        1.93026602      -1.88170993      -1.89532030        3      -0.01748779       0.01978049      -0.17559497
23
Properties=species:S:1:pos:R:3:molID:I:1:forces:R:3 Nmols=2 Comp=EMC(1):VC(1) energy=-1207.04541015625 pbc="F F F"
C       -0.55368245       2.82042670       1.12392294        0      -4.13066721       1.64419258       1.20188260
O        0.61067361       2.90822387       1.08283591        0       1.90143156      -1.60580587      -0.45278901
O       -1.56757545       1.90141177       1.18038595        0       1.90099704      -0.61585474       0.01439635
O       -1.31567645       3.95195580       1.31354690        0      -0.54761434       0.01402926       0.05728060
C       -1.15945637       0.53953975       1.10869789        0       2.39229012      -1.30854201      -1.38868964
C       -0.60942441       5.19708776       1.24397397        0      -1.93693972      -0.17475486       0.78674895
C       -2.15627742      -0.55227125       1.12845790        0      -0.56963414      -1.65163600       2.77374554
H       -0.63897443       0.42297876       0.11855894        0      -0.25235137       0.41899276       0.25513697
H       -0.30251741       0.28352877       1.83223498        0      -1.15863705       0.84333158      -0.24439216
H       -0.11624742       5.35216379       2.20685101        0      -0.10292082       0.41406578      -0.07044637
H        0.10057957       4.94698191       0.51334596        0       0.98144019       1.10774052      -1.22874618
H       -1.82345545      -1.57423818       1.06068397        0       2.09048486      -0.36749691      -0.08747530
H       -2.64350533      -0.58475226       2.09431791        0      -0.07326806       0.89682400       1.16630316
H       -2.94465542      -0.71663326       0.51023495        0      -2.18407488       1.55067158      -2.90933204
H       -1.42349541       5.98950672       1.03843296        0       1.68946326      -1.16575754       0.12637633
C       -0.31447041      -3.58338714      -1.46412504        1       3.16753340      -2.13241196      -3.84760571
O        0.55831057      -2.43077517      -2.18514109        1      -5.78967571      -2.30268335       0.76797014
C        1.54243159      -2.25624514      -1.45400703        1       5.20724058      -1.33999527       0.89195883
O        1.86569357      -3.50974727      -0.79744804        1      -2.32946515      -0.97135746      -0.57349348
C        0.73536760      -4.48398829      -1.06666505        1      -0.06796443       7.72405434      -0.35836196
O        2.37544250      -1.38256919      -1.48509705        1      -1.41808891      -0.74693918       0.58121568
H        0.76844460      -5.31061125      -0.46970305        1      -0.03783515      -1.66934133       0.82754320
H       -1.12763941      -4.02895403      -2.15072918        1       1.26825523       1.43867481       1.71077311
21
Properties=species:S:1:pos:R:3:molID:I:1:forces:R:3 Nmols=2 Comp=PC(1):VC(1) energy=-1181.546142578125 pbc="F F F"
C       -2.77607775      -0.20562433      -1.53955948        0       2.11006212       1.33617461      -3.72400641
O       -2.36679482      -0.44564033      -0.26708949        0       0.36837101       0.40594947       1.67052746
C       -3.39124370      -0.18280132       0.55434549        0      -0.37577763      -4.20274639       3.32710242
O       -4.47453070       0.09359468      -0.11637549        0      -0.89750886       2.16731048      -1.56018162
C       -4.05466175       0.61176068      -1.47582543        0      -0.46003127      -0.34612143       3.35136032
C       -1.49644876       0.57169569      -2.21235037        0      -4.92164326      -0.58283401      -0.85904312
H       -2.93682575      -1.11523938      -2.09851551        0      -0.00531258      -0.67940557      -0.23377375
O       -3.44998264      -0.63177931       1.70508349        0       0.60136271       1.99320197      -2.43212581
H       -3.87626767       1.68107963      -1.29247153        0       0.04597403      -0.13893563      -0.52984846
H       -4.94257879       0.44917867      -2.05512452        0       0.25523305      -0.20368743      -0.66754913
H       -1.58334780       1.45300567      -1.67489552        0       1.00608051       1.60868430       0.92100871
H       -0.69514275      -0.06060532      -2.13386655        0       1.92609119      -0.85273874       0.16690694
H       -1.74266374       0.85064769      -3.25860858        0       0.34709910      -0.50485170       0.56962252
C        3.14170218       0.07860968       1.90398347        1      -5.17013502      -1.17357039       2.83255100
O        4.31518841       0.20511667       1.47918546        1       4.50896692       0.71867412      -1.62467098
C        4.23197222       0.08495168       0.09893551        1       7.56717205      -0.34322038      -2.43226790
O        3.03761721      -0.08545133      -0.25864148        1      -3.57565784      -0.33504236      -1.14657736
C        2.26470423      -0.09372932       0.89008349        1      -1.07060158       0.33691695      -0.22779918
O        5.23632526       0.02389467      -0.65116549        1      -3.61006069       0.50129831       2.94852018
H        1.16768730      -0.07575033       0.74390954        1       1.12829673      -0.09985180       0.35957032
H        2.90786624      -0.14447433       2.95684457        1       0.22201873       0.39479554      -0.70932609
35
Properties=species:S:1:pos:R:3:molID:I:1:forces:R:3 Nmols=3 Comp=DMC(1):EMC(1):VC(1) energy=-1799.18505859375 pbc="F F F"
C        0.77743095      -4.03600359       0.27467319        0       1.46433580      -2.81044102       0.65992999
O        1.28903091      -5.16320753       0.95929217        0       0.29138339       0.35766745      -0.68621230
C        0.75651294      -5.16368055       2.18931627        0       0.98692816      -1.65191531       2.75702000
O       -0.16066407      -4.14499569       2.23753524        0       0.20550793      -1.00105989       0.60978723
C       -0.13006607      -3.53275061       1.02234018        0      -3.08517790       3.33678627       2.46422100
O        1.10245395      -5.90156651       3.12484407        0      -1.43510497       2.55582142      -3.21577358
H       -0.73748505      -2.59803772       1.09414721        0       0.73986268      -1.19479489      -0.60594928
H        1.16478693      -3.86064363      -0.65364784        0       0.82157540       0.38511401      -1.95115280
C        2.39473701      -0.13567971      -2.00385976        1      -3.48384953       1.34785771       0.83704835
O        2.02117705       0.93080831      -1.53105283        1       0.88693666      -1.65756989      -0.68208379
O        1.56575596      -1.17551470      -2.29425788        1      -0.40396643       0.69804919       0.37433964
O        3.56410599      -0.51147169      -2.36361885        1       0.53956699      -1.47143900      -0.85266948
C        0.08413994      -1.07812166      -2.07079673        1       2.78857064       1.53157699      -1.02253413
C        4.63801384       0.32011929      -2.19520688        1       1.04392505       2.83375859       0.53783870
H       -0.02724706      -1.10631275      -0.99866283        1      -0.53897148      -0.00486983       0.10476565
H       -0.23066705      -0.09215672      -2.55662274        1      -0.06573040      -1.40001392       0.66998857
H       -0.13875505      -1.96449971      -2.61947680        1      -0.99951518      -0.21780759      -0.00439641
H        5.52925682      -0.25668570      -2.45086575        1      -0.24300171       0.40977895      -0.02401921
H        4.53675508       1.33490324      -2.72569370        1       0.19150424      -1.47856140      -0.28279740
H        4.66562796       0.72269827      -1.16748881        1       0.34377113      -0.64642686       0.26762193
C       -2.15529704       3.67527223       0.67875421        2      -1.54764020      -0.85260493       0.04120016
O       -2.19263101       3.17264032       1.81260824        2       0.73322225       1.62132621      -3.69359851
O       -2.98643708       4.62139940       0.16492219        2      -0.30565214       0.66887474       2.13312864
O       -1.49599302       3.30005240      -0.51957279        2      -0.34679806      -1.15795398       2.47748065
C       -4.00357485       5.33675241       1.03247321        2       0.56090856       0.54719484      -1.40805280
C       -0.48296008       2.28641725      -0.33284181        2       0.18031228       1.64445841       0.44117603
C       -4.74070215       6.38486719       0.09098719        2      -1.17421389       0.84921670       1.99475741
H       -4.58521795       4.56906319       1.51632619        2      -0.89946181      -0.44857621      -0.66304219
H       -3.61696410       5.83598614       1.95198119        2       0.71881759       0.12443811      -1.07109094
H        0.13538894       2.76807332       0.40759417        2       1.01339841       0.05624676       0.10505253
H       -0.68323606       1.33709824       0.08318919        2      -1.40437126      -0.92030483       0.53511763
H       -5.36767626       7.06059551       0.80738819        2       0.43856710      -1.66150081      -0.95319796
H       -4.12336302       7.20362139      -0.28329381        2       0.77914530      -0.82226461      -0.32442188
H       -5.39347601       5.98927641      -0.74339181        2       0.97439623      -0.10164845       1.24113917
H       -0.01203106       2.06862926      -1.25954878        2       0.23081966       0.53158778      -0.81062001
18
Properties=species:S:1:pos:R:3:molID:I:1:forces:R:3 Nmols=1 Comp=DEC(1) energy=-760.35400390625 pbc="F F F"
C        0.21545677       0.27857527       0.78011549        0       2.98412323       1.80404472      -0.34965754
O        1.21367276       0.73387229       1.36984849        0      -3.62699795      -0.43989879      -0.80449224
O        0.36155477      -0.84742874       0.10499748        0       1.59113646      -1.65059507      -1.77287483
O       -0.96275026       0.95702928       0.50959450        0       2.80153799       2.32283497       4.31710720
C        1.44331980      -0.93667674      -0.97146153        0       0.36577129      -1.12544727      -0.06676793
C       -1.85403621       0.46545729      -0.32444653        0      -2.17291260      -2.18840814      -3.71426153
C        2.63966966      -1.96566975      -0.47162151        0      -2.72631669       1.98486078      -0.12520641
H        0.93263578      -1.43869877      -1.92214453        0       0.90596211       0.97339880       1.88417399
H        1.84146082       0.10294128      -1.22501552        0      -0.47208896      -1.23671508       0.51738989
C       -3.10192323       1.32403529      -0.93014354        0       3.11782956       0.67135537      -2.54264355
H       -1.13933623       0.15264128      -1.19133651        0      -2.09371686       0.28602549      -0.06470352
H       -2.34241629      -0.45918372       0.11588048        0       0.30632299       0.67542434      -0.38494474
H       -2.68730831       2.20029140      -1.67216051        0      -0.60015309      -2.01428413       1.86293626
H       -3.57766914       0.60869330      -1.68711853        0      -0.01714307       1.06643963       1.73127484
H       -3.60041618       1.88782930      -0.14118752        0      -0.30718213      -0.81953585      -0.16424447
H        3.46203876      -2.13866377      -1.12403250        0      -0.25191069      -0.34745866      -1.35279107
H        3.18801069      -1.56574667       0.34892547        0      -0.31402570       0.65483713       1.07177091
H        2.03143668      -2.80301762      -0.16429052        0       0.50976419      -0.61687821      -0.04206496
44
Properties=species:S:1:pos:R:3:molID:I:1:forces:R:3 Nmols=3 Comp=DEC(2):VC(1) energy=-2057.523681640625 pbc="F F F"
C        0.30511126       0.00994164      -3.06306362        0      -0.29961833       1.73471045      -1.17312849
O        0.63089526       0.82307667      -2.22752953        0      -0.29277474      -1.20990884      -0.92286634
O       -0.00509874      -1.26174140      -2.95426345        0       0.26115835      -0.25842232       2.08598185
O        0.08915926       0.25015363      -4.38722277        0       0.02215248       1.83118415      -0.66788137
C        0.16192526      -1.78970039      -1.59430158        0       1.06235933       0.66378975      -0.14340198
C        0.30054528       1.59053469      -5.00813961        0       0.44938511       1.21738732      -0.20836711
C       -0.06891674      -3.25976038      -1.62754750        0      -1.30635071      -1.18394697       0.36344206
H        1.23337328      -1.58371139      -1.28653550        0      -0.83625561       0.00534043      -0.24644533
H       -0.52705675      -1.30971134      -0.86590254        0       0.19105148       0.14427829      -0.62415391
C       -0.71971077       2.73079062      -4.76370478        0      -0.13153553      -0.99220502       1.36512685