1
Lattice="20.0 0.0 0.0 0.0 20.0 0.0 0.0 0.0 20.0" Properties=species:S:1:pos:R:3:forces:R:3 config_type=IsolatedAtom energy=-10.7072114944458 pbc="F F F"
H        0.00000000       0.00000000       0.00000000      -0.00000000      -0.00000000      -0.00000000
1
Lattice="20.0 0.0 0.0 0.0 20.0 0.0 0.0 0.0 20.0" Properties=species:S:1:pos:R:3:forces:R:3 config_type=IsolatedAtom energy=-48.84744644165039 pbc="F F F"
C        0.00000000       0.00000000       0.00000000      -0.00000000      -0.00000000      -0.00000000
1
Lattice="20.0 0.0 0.0 0.0 20.0 0.0 0.0 0.0 20.0" Properties=species:S:1:pos:R:3:forces:R:3 config_type=IsolatedAtom energy=-102.57117462158203 pbc="F F F"
O        0.00000000       0.00000000       0.00000000      -0.00000000      -0.00000000      -0.00000000
24
Properties=species:S:1:pos:R:3:molID:I:1:forces:R:3 Nmols=3 Comp=VC(3) energy=-1601.4254150390625 pbc="F F F"
C        0.45285612       3.01426506      -2.32330513        0       3.55617213      -1.06489229      -0.34135696
C       -0.65326887       3.32036090      -1.70732403        0      -1.72783101       0.63429499      -0.04485869
O       -0.82637185       2.63587189      -0.55307001        0       1.28886497      -0.96968293      -0.27370954
C        0.26635113       1.80842292      -0.42423803        0       1.24521732       0.81699795      -0.70564693
O        0.50404215       1.07012391       0.47730500        0      -0.97069556       1.54400611      -2.11786938
O        1.20395112       2.09938192      -1.54059100        0      -3.78751278       0.48756075       1.18370056
H        0.99488211       3.42258286      -3.19497991        0      -0.59213239      -0.40792686       0.69276768
H       -1.42996383       3.95062685      -2.12583590        0       0.03918725      -0.17834672       0.48210567
C        1.26803315       0.08491497       2.52308202        1       0.49628437      -1.25375915       2.38991165
C        0.71784115      -0.92897701       3.20788789        1      -5.23439217       0.00271869       2.37351847
O        0.64552510      -2.02956414       2.40690088        1       1.06722856      -0.62774241       0.27579182
C        1.62233818      -1.82807600       1.46278298        1      -0.37534285      -2.20766568      -1.31074476
O        2.07954812      -2.65240097       0.69964898        1      -0.95873982       1.76715004       1.73957920
O        1.90033615      -0.53814703       1.52785194        1       2.94521856       0.97452354      -2.13244390
H        1.60973608       0.97362196       3.01618791        1      -0.02844486       0.25433600      -0.48806527
H       -0.23638988      -0.89091206       3.98334789        1       2.91410589       0.07843313      -1.80554700
C       -2.61711597      -1.50253499       0.01472599        2       0.33399141       2.23544025      -1.37293231
C       -1.65134692      -2.33284712      -0.23200200        2       2.44816685      -1.26629472      -0.69667387
O       -0.75461686      -1.64041007      -1.12287402        2       0.37093449      -2.34778643       1.02783632
C       -1.23930693      -0.42871904      -1.39447701        2       0.36179358      -0.21104336      -1.25807106
O       -0.76134789       0.30777997      -2.22421694        2      -0.88655710      -0.56447935       1.69728518
O       -2.37302589      -0.32890302      -0.69123900        2      -1.27789283       1.06108499       0.37855536
H       -3.27383399      -1.43262005       0.79540098        2      -1.61618829       0.14689061       1.40439534
H       -1.51131582      -3.31143308       0.29795000        2       0.38856429       1.09618282      -1.09752762
22
Properties=species:S:1:pos:R:3:molID:I:1:forces:R:3 Nmols=2 Comp=DMC(1):EC(1) energy=-1151.9710693359375 pbc="F F F"
C        2.69088602       2.54591513      -2.12696218        0      -1.36915076       4.44920874       1.48317444
O        2.34068704       3.64524508      -1.67616713        0       0.62686747      -2.23733330      -0.77216214
O        1.94911408       1.49887204      -2.25967312        0       0.19153595      -1.31258512      -0.27226889
O        3.84929514       2.26471615      -2.58353305        0       2.23846769      -0.94762945      -0.51360989
C        0.58085805       1.60748911      -2.26327205        0      -1.68148696      -0.29583573      -1.08421612
C        4.93368006       3.14626217      -2.62285423        0       2.46190500      -0.82718694      -1.09917641
H        0.20010208       1.35155511      -1.32161117        0      -0.44527066      -0.39523047       1.73357844
H        0.13602108       2.57295012      -2.51098919        0       0.44890699       0.20084584      -0.34142950
H        0.19209708       0.83466810      -2.94893003        0       0.25757089       0.39368230      -0.04101229
H        5.82548094       2.54683304      -3.02168822        0      -1.02702618      -0.02289563       0.65427613
H        4.87149000       3.85138416      -3.42286325        0      -0.86440605       0.96160531      -0.25292730
H        5.33360624       3.57181811      -1.71259320        0      -0.83791363       0.03335452       0.50577366
C       -3.41220593      -1.40147686       1.27721584        1       3.62734842      -2.80004859       1.14496481
O       -2.92165089      -1.47329795       2.67879891        1      -1.32570195       1.28635085      -1.94603229
C       -2.61571789      -2.75121093       2.98010492        1       1.52621794       1.90639734       2.12494111
O       -3.01706386      -3.61698890       2.14714384        1      -0.71001446      -0.21150899      -3.78585076
C       -2.94653201      -2.85366082       0.89804888        1      -0.85656095      -1.00250268      -0.76284438
H       -4.42421579      -1.24309289       1.20551991        1      -2.01925707       0.48972729       0.20041451
H       -2.80409384      -0.83304894       0.58278483        1      -0.09081978       0.99152112       0.59854090
O       -1.86870396      -2.94726801       3.88132596        1       0.19785154      -0.55821991       1.10159969
H       -3.50762296      -3.30938387       0.07090886        1      -0.54187500      -0.14826810       0.65968990
H       -1.93009996      -2.85789800       0.47551787        1       0.19281149       0.04655108       0.66457587
25
Properties=species:S:1:pos:R:3:molID:I:1:forces:R:3 Nmols=2 Comp=DMC(1):PC(1) energy=-1237.253173828125 pbc="F F F"
C        2.67575073       2.86108518      -2.86082530        0      -1.18137944      -2.03434753       2.13001037
O        2.76785755       3.16294599      -1.37367737        0       2.78421235       3.27582598      -4.24163818
C        2.53783751       2.18929100      -0.59767431        0      -0.69267505       2.31768179       5.40570974
O        1.93164957       1.26053202      -1.20610726        0      -1.43439770      -3.44991851      -2.48467112
C        1.75701964       1.53768110      -2.68214726        0       1.64127946       0.86193526       1.88768649
C        1.82226360       3.92414308      -3.45830131        0      -0.58072162       0.33914924      -1.26671398
H        3.62236261       2.79383111      -3.48461127        0      -0.39508200      -0.50185585       1.41766500
O        2.62325168       2.39863515       0.62851471        0       0.13286415      -1.72350979      -2.84254837
H        0.69594961       1.78663802      -2.79194736        0       0.36841899      -0.26980570      -0.31596637
H        2.12722850       0.64140809      -3.18146920        0      -0.22759426       0.38988626      -0.20115973
H        0.94558364       4.07772589      -2.83702040        0       0.08616781       0.69540966       0.21078575
H        2.44793057       4.83902597      -3.65341330        0      -1.02911079      -0.76053715       0.12169112
H        1.39495564       3.45968413      -4.37784052        0       0.52801812       0.86008674       0.17915034
C       -2.77969742      -2.77740502       1.95494866        1       1.50081432       0.16774315      -1.75514185
O       -3.66863132      -2.42830992       2.60583663        1      -2.73275399       1.31397641       1.33767366
O       -2.29131937      -2.42984796       0.79584169        1      -1.01581621       3.14395189      -3.45643997
O       -1.89286339      -3.66918087       2.21758556        1       1.74527466      -2.94833517       1.76668596
C       -2.91089439      -1.28356600       0.07705668        1       1.83203268      -1.06678891      -0.80162847
C       -2.05939937      -4.26767588       3.43624568        1       0.89558864      -3.63534117       0.97955561
H       -3.72709346      -1.70948493      -0.53036433        1       0.45241049       0.50637311       0.25707501
H       -3.16581345      -0.57542592       0.80696666        1      -0.91652846       0.91140383       0.87904608
H       -2.09199142      -0.74095094      -0.52423334        1      -1.12393260      -1.22616374       0.48015255
H       -1.32394242      -5.09556913       3.62502956        1      -0.04646891       0.50966275      -0.98646438
H       -1.93663037      -3.67549205       4.25493479        1       0.80740511       2.83200693       2.18975329
H       -2.99357438      -4.73741913       3.66374469        1      -1.39802623      -0.50848961      -0.89026743
27
Properties=species:S:1:pos:R:3:molID:I:1:forces:R:3 Nmols=2 Comp=DMC(1):EMC(1) energy=-1265.3946533203125 pbc="F F F"
C       -2.03106403       0.65746909       0.26760513        0       0.92862964      -0.37706405      -0.10435236
O       -1.07807493       0.48504212       1.01702011        0      -1.98198307       0.75273222      -2.02364373
O       -3.26775193       0.23020512       0.42069915        0      -0.51516670      -0.25679624      -0.46217465
O       -2.21094799       1.20861411      -0.95951784        0       2.64176941       0.13399136      -0.56981599
C       -3.54576588      -0.43989488       1.59327912        0      -0.45955920       0.82675862       2.18036747
C       -0.96694797       1.71850216      -1.62740982        0      -2.61985970      -0.96163440      -0.19867903
C       -5.02091789      -0.62569290       1.77413309        0      -2.75326061      -3.47766924      -1.03740859
H       -3.05448604      -1.41090190       1.60176313        0       0.40235907      -0.00420868       0.27257147
H       -3.22410202       0.31734413       2.37260509        0       0.07079273      -1.22169995       0.09675997
H       -0.72410798       2.40959311      -0.88021588        0       1.30435872       1.49479675       0.14646345
H       -0.25252098       0.92709315      -1.77050185        0       0.16757783      -0.26461959       0.12378958
H       -5.35431385      -1.19761384       2.70942616        0       1.05486715       0.86567026      -1.09185410
H       -5.65353584       0.21069811       1.69021618        0      -0.02073878       1.52837694       0.23434287
H       -5.48677492      -1.27245092       0.88484311        0       1.38041389       0.89320886       1.51685297
H       -1.31561697       2.06881022      -2.61999083        0       0.33759099       0.05734220       0.91579580
C        2.86216998      -0.54789591      -0.30648586        1      -0.97942126       2.71793270       0.02902353
O        2.04342008       0.15615812       0.27660215        1       0.87485230      -2.20963669       0.57194698
O        3.26260614      -0.10306588      -1.49444783        1       0.76888835      -1.12914896      -0.44287705
O        3.59369302      -1.61061084      -0.04163986        1       0.24677402       0.37225869       0.05228829
C        2.62956214       0.98352611      -2.09231687        1      -0.36659402       1.01000226      -0.18593538
C        3.55574894      -2.15067077       1.29780114        1      -1.45509636       0.84861368      -1.46423912
H        1.88944602       0.64559013      -2.80296278        1      -0.20760679      -0.29375112      -0.27513620
H        2.08495712       1.70345008      -1.42564690        1       0.85357440      -0.55788898      -0.20436049
H        3.46013594       1.43517017      -2.62836289        1      -0.24325764       0.49184418      -0.03022760
H        4.11010695      -3.05958986       1.20176017        1       0.87319201       0.02774924       0.64219964
H        3.79936910      -1.30624783       1.98418510        1       0.03299603      -1.18272281      -0.08772546
H        2.50926495      -2.46688581       1.28762710        1      -0.33609194      -0.08443700       1.39602840
40
Properties=species:S:1:pos:R:3:molID:I:1:forces:R:3 Nmols=4 Comp=EC(4) energy=-2248.089599609375 pbc="F F F"
C       -0.45859733       3.28287387      -3.49498057        0      -0.81018758       1.99050415      -2.42506742
O        0.88948870       3.79171300      -3.25429845        0      -2.68806839      -0.48032856       0.90409982
C        1.77967572       2.90106797      -3.77192235        0       0.65970916       3.80968952      -0.16290264
O        1.17627263       1.93414199      -4.35922432        0      -0.10112953      -2.05735946      -0.66740632
C       -0.21532533       1.93098700      -4.04651356        0      -0.19930851      -3.24550509       0.09936053
H       -1.27154136       3.41099501      -2.76392436        0       1.08653784      -0.05826068       0.43803567
H       -0.92158234       3.83359003      -4.43693542        0       0.98856360      -0.09706813       1.47723866
O        2.90443778       3.31073308      -3.80425644        0       0.24543428      -1.66410005      -0.44408506
H       -0.37066332       1.10437799      -3.21093941        0      -0.01349416       1.17551327      -1.59926617
H       -0.76461333       1.62513399      -5.02565050        0       0.60578060       0.54995883       1.72385442
C       -3.80103922      -2.50376415       2.43770266        1      -0.91106826       0.50562495      -2.91237688
O       -3.38939834      -3.25377202       1.26028454        1       0.63193679      -0.71055722       0.60122252
C       -2.30445933      -3.99550915       1.61562252        1       2.99857783      -0.55114746      -2.57643318
O       -2.14457035      -4.05070019       2.94205546        1      -0.63576221       0.44296408      -0.36064580
C       -2.87330842      -2.91826797       3.46709847        1       1.35456157      -1.61336648       3.01839685
H       -3.50343823      -1.48718607       2.20085359        1      -0.72785914       0.55377513      -0.10390970
H       -4.90017223      -2.60740995       2.47806549        1       0.64227825       0.04742613       0.47159171
O       -1.42242634      -4.39646721       0.83060056        1      -3.39768314       0.99567151       2.28563213
H       -2.05277324      -2.11510110       3.58914661        1      -1.25780869      -0.94471425       0.76552701
H       -3.41370034      -3.34911704       4.41145039        1       1.19270515       1.26295877      -1.18171191
C        2.30157065       3.02082801      -0.87318546        2       1.43693376       0.39669347       0.04725960
O        1.55322373       4.09202099      -0.41163146        2      -0.87186450       0.40855837      -0.85165846
C        0.22185968       3.76526093      -0.52127045        2      -1.36961412       3.03450823       2.59209108
O        0.00528267       2.46501303      -0.45626047        2       2.93892860      -0.25747848      -2.00580406
C        1.41516268       1.88063395      -0.86391044        2      -3.68837738      -3.25780368       0.41910061
H        2.83828473       3.31009007      -1.79112947        2      -0.52442884      -0.21339703       0.55652249
H        3.08249879       2.85036993      -0.17078246        2       0.85032952      -0.12193151       0.72576737
O       -0.57856935       4.68077612      -0.37167346        2       1.06212127      -2.37947917      -0.90587389
H        1.33951473       1.28182793      -1.79590452        2      -0.17193101       1.11187243      -0.02634156
H        1.47189569       0.99151593      -0.16966246        2       0.56330627       1.38945353       0.09347034
C        0.88761669      -2.09321308       0.81132352        3      -3.73413515      -0.19356740      -1.35147214
O        0.03761967      -1.97608399       2.01637745        3      -0.00010967       2.35141540      -0.99077225
C        0.60278767      -2.53470492       3.05735755        3       0.40905100      -2.16504002       0.57389283
O        1.52326167      -3.40426898       2.49319744        3       0.13961679      -1.10432577       1.93205571
C        1.51099765      -3.45389700       1.07032657        3       0.28916427       2.93220377       1.90241671
H        0.08297767      -2.01841211      -0.05692146        3       1.50972748      -0.48542219       1.45521891
H        1.59659469      -1.32058406       0.56207752        3       0.17852581       0.39008445       0.74048316
O        0.34869966      -2.52002215       4.24030066        3       0.47560883       0.49181929      -2.45711637
H        1.02420068      -4.25862026       0.65650052        3      -0.86561549      -1.74087656      -0.61261415
H        2.53591371      -3.38821101       0.90628552        3       1.70904827      -0.49896574      -1.18777919
30
Properties=species:S:1:pos:R:3:molID:I:1:forces:R:3 Nmols=3 Comp=EC(3) energy=-1687.4034423828125 pbc="F F F"
C       -4.12463999      -1.38331330      -2.42669320        0      -0.09468281      -0.10268056       1.01638985
O       -4.85671186      -0.58527428      -3.29135799        0      -0.88732678       1.15235257      -0.73797637
C       -4.90107059      -1.11834621      -4.56758595        0      -0.97388649       0.62992156       1.14812863
O       -4.02001286      -2.08291125      -4.62866592        0       1.34485936      -0.86454201      -0.43106508
C       -3.24393392      -2.16244316      -3.42454815        0      -2.84958386      -0.90851939       0.96267867
H       -3.52626491      -0.84614927      -1.66835916        0      -0.05313703       0.32300818      -0.69489300
H       -4.85408068      -1.92120123      -1.77655911        0       0.38651198      -0.32410741      -0.68938899
O       -5.69529676      -0.78748024      -5.39322805        0       0.83343637      -0.18782544       0.48214102
H       -2.31512570      -1.72622728      -3.47138715        0       2.07744479       0.85087943      -0.68215287
H       -3.18651271      -3.17717123      -3.06380701        0       0.18061489      -0.54400390      -0.42696244
C        0.30978417      -0.65456825      -0.57457012        1       2.48611212      -0.77280593       0.86792213
O       -0.88102782      -1.13273120      -0.17320210        1      -2.68834281      -0.42075127       1.40053749
C       -1.14308679      -2.33998322      -0.65088713        1       1.45603764       0.64819932      -2.25200891
O       -0.15073483      -2.73469424      -1.49947405        1       2.01303077       0.67912459       0.87330079
C        0.98336518      -1.88646221      -1.22591114        1       0.64076006       0.66987681      -1.07452774
H        0.22791818       0.14389074      -1.23837507        1      -0.19094697       1.49776900      -0.97695935
H        0.85364717      -0.37587824       0.35009891        1       0.00806067       0.30244431      -0.49941593
O       -2.14108491      -2.93444228      -0.60166711        1      -1.98229492      -1.05417657       0.97878695
H        1.68404114      -1.63605428      -2.08693218        1      -1.53941417      -0.43160599       0.26808000
H        1.70171022      -2.23403931      -0.50286508        1      -0.16725266      -1.14255726       0.46738499
C        3.67231321       2.92746186       3.89800692        2      -0.42495430      -1.22694921       1.94889700
O        4.82196808       2.26200986       4.53771782        2      -2.79413700      -2.23322535      -0.80160052
C        5.47337103       3.08063078       5.26452112        2       3.21993828       2.16253304       0.92509031
O        5.27526140       4.36545181       4.83315992        2      -0.52715731      -0.49378347       0.04474890
C        4.28790140       4.29067278       3.83464384        2      -0.96524298       2.04130197      -0.66316044
H        3.43658614       2.38041568       2.99494600        2       0.36180514       0.24904215      -0.32932192
H        2.68566012       2.82074285       4.53663397        2       1.89403224       0.37233728      -0.61998206
O        6.34440804       2.87332678       6.06447983        2      -1.09521925      -0.45743293      -0.27131164
H        4.68179321       4.43559790       2.83605695        2       0.57978636       0.09629264      -0.31631035
H        3.64824009       5.17260456       3.99479294        2      -0.24885109      -0.51011568       0.08295050
28
Properties=species:S:1:pos:R:3:molID:I:1:forces:R:3 Nmols=2 Comp=EMC(1):PC(1) energy=-1323.49658203125 pbc="F F F"
C        1.72377765       3.32298040       1.23377502        0      -2.62763953      -2.43787003       1.38736784
O        2.63007474       3.96519041       1.53447902        0       3.76389956       1.73907363       1.00072980
O        1.29991972       2.14615750       1.84063101        0       0.12709177       1.17333102      -0.62356961
O        0.77926767       3.66562247       0.43865305        0      -2.38541985      -0.71870542      -1.59329355
C        1.90697467       1.75645757       3.04736710        0       0.50056231      -2.52750778      -0.37749887
C        0.88982570       4.74090958      -0.45231396        0       0.45540702       1.65195918       0.49555969
C        1.15173769       0.57867450       3.70658803        0      -1.14814246      -0.07779980       0.99645418
H        2.79456258       1.18240547       2.76503110        0       0.71918225       0.58588374      -0.37657765
H        2.20889378       2.54168057       3.70765495        0      -0.33116138       0.73629946       0.37362099
H        0.10335267       4.74462366      -1.20242596        0      -0.38612777      -0.17602447       0.37691498
H        0.86104167       5.71037769       0.15870804        0       0.05194594      -1.04687071      -0.87371302
H        1.82548165       0.10581652       4.46028614        0      -0.47880232       0.36757073      -0.60463637
H        0.22868967       0.92526150       4.24658728        0       0.83904839      -0.11627221      -0.56003737
H        0.82980067      -0.20090248       2.97496009        0       0.36719576       0.72836536       0.36922401
H        1.80501771       4.65960073      -1.02614200        0       0.53296125       0.11856788       0.00945452
C       -1.31142235      -4.00997543      -1.90670896        1      -0.38364881      -1.89804447      -0.81418300
O       -1.36890638      -2.83475542      -2.73198986        1      -1.83914721      -1.29063904       4.18669367
C       -1.54313231      -1.91736245      -1.71109498        1       4.11090040      -0.67458582      -1.00468004
O       -1.16352928      -2.32432938      -0.44027796        1      -2.52561259      -2.03242445      -0.56209803
C       -1.41685629      -3.77515841      -0.40252295        1       0.65930539       1.31451380       0.17394137
C       -2.38931227      -5.01158953      -2.23772907        1      -0.10360968      -1.03586912      -1.12649286
H       -0.30356833      -4.38847160      -2.05719805        1       0.35749888      -0.48745906      -0.64265901
O       -1.39821637      -0.80781245      -2.05047894        1      -1.23377371       3.04543662       0.15132850
H       -2.34512043      -4.16522455       0.13714604        1       0.87263966       1.31764579      -0.85197556
H       -0.57648534      -4.34543562       0.01129304        1      -0.02199745       0.64927328       0.53563589
H       -3.37616634      -4.65697241      -2.00140500        1      -0.19407117       0.42858464       0.12681772
H       -2.36349630      -5.22382641      -3.30567098        1      -0.02648636      -0.00777310      -0.04290175
H       -2.28031039      -5.97883224      -1.71653998        1       0.32800251       0.67134202      -0.12942773
46
Properties=species:S:1:pos:R:3:molID:I:1:forces:R:3 Nmols=3 Comp=DEC(2):EC(1) energy=-2083.826416015625 pbc="F F F"
C        1.12228513       2.57065392       3.05553150        0      -1.12111151      -2.49505782      -2.40405297
O        0.89510715       3.33680701       3.90915251        0       0.04552639       2.05321169       1.92683947
O        0.83131516       1.22789502       3.08354163        0       1.12971675       2.46573114       4.73092079
O        1.47916710       2.80396104       1.84003460        0       0.76702237      -0.25161350      -1.91221499
C        0.86742717       0.93730795       4.75010538        0      -1.04807043      -1.26200652      -3.34045124
C        1.98150611       4.01263905       1.23323762        0       0.11481711       0.47945082       2.98884869
C        0.80585617      -0.58874100       4.48594856        0       0.38659668       0.93468559       1.59427822
H        1.87435615       1.08331895       5.15053034        0      -0.32522798       1.05008888      -0.08978423
H       -0.02357686       1.61593997       5.10627460        0       1.71981370      -1.86856508      -0.28929442
C        0.86050314       4.98110104       1.04421353        0       0.23293436       1.52539110       0.34278423
H        2.59138203       4.60207987       2.06282258        0       0.09909308      -1.52447867      -1.50721359
H        2.49448419       3.56533098       0.39430356        0       0.18060875       0.80959988      -0.12851733
H        1.30257308       5.96039391       0.89348656        0       0.38420743       0.23440480       0.33564001
H        0.26657715       4.89897490       0.20957758        0      -1.20229506      -1.10878158      -2.06988502
H        0.17814614       5.04733515       1.87895453        0       0.08028841      -0.24143097       0.48249167
H        1.16012108      -1.13257897       5.37814569        0      -0.81934214       0.11059970      -0.16386318
H       -0.23201686      -0.73150504       4.21799374        0       0.15683544      -0.90834689      -0.21524200
H        1.59177709      -0.83813405       3.75746059        0      -0.78141344      -0.00288257      -0.28128368
C       -3.41360188      -0.98489702      -1.42369044        1       0.11234295      -2.75142050       1.09227312
O       -4.55164003      -0.98675704      -1.68807948        1      -2.76169753      -0.67388767      -2.38471079
O       -2.50612378      -1.95843303      -1.43353546        1      -0.72738278      -1.11949515      -1.15225983
O       -2.91195083      -0.18129502      -0.62358844        1       3.28950572       3.31121421       2.61251545
C       -2.94922781      -3.16452909      -2.04602051        1      -1.64736462       0.83983326      -1.63465452
C       -3.65715981       0.89645898      -0.14776742        1       1.31994653      -0.32307959       3.63946414
C       -1.73851287      -4.02535009      -1.99297738        1       0.18251038      -2.55980921      -0.18402247
H       -3.87312388      -3.66752005      -1.60215044        1       1.13065910       0.76652926       0.15442830
H       -3.32941294      -2.82905102      -3.10723448        1       0.94125193      -0.88967001       1.19869101
C       -2.66523385       1.63324594       0.88361657        1      -2.79895735       0.56468648      -0.08384144
H       -3.91746187       1.44909501      -0.97636640        1      -0.78229690       1.84537411      -1.38009667
H       -4.52412081       0.52065700       0.48019758        1       0.60760105       0.43874514      -0.71120650
H       -3.43014789       2.24482489       1.47997653        1       1.47478008      -0.67545563      -0.50310087
H       -2.09312892       0.97019100       1.50268054        1      -0.34797505      -0.74585789       0.37169558
H       -1.89375591       2.26521993       0.49221757        1      -0.16191232       0.46433496      -0.89270151
H       -2.09110880      -5.09659481      -2.20086837        1       0.74397320       1.40163207      -0.32703754
H       -0.93603188      -3.68115592      -2.69023538        1      -0.75647551      -0.46100268       0.57364577
H       -1.35541391      -4.14123487      -0.96314341        1       0.04841447       0.52351487      -0.38464582
C        2.30126524      -3.24978709      -3.27970552        2      -0.71763176       3.54723620       1.65193534
O        3.00183821      -1.84303808      -3.55832553        2      -0.22045243      -3.11976004      -0.48448777
C        2.96121526      -1.04488206      -2.52093434        2      -2.73880863      -2.23306966       0.30798048
O        2.09142613      -1.54451299      -1.57714641        2       0.53895164      -1.21425343       0.11531949
C        1.89760613      -2.98708797      -1.72157145        2       2.38756776       0.62218380      -0.67591059
H        1.30514014      -3.13057709      -3.81170249        2       1.40502334      -0.72518259      -0.03856802
H        3.03420115      -4.06249380      -3.52643442        2      -0.92710757       0.82328451       0.26338345
O        3.41751218       0.01574698      -2.43227243        2       1.45802689       2.22450924       0.16012311
H        0.90290713      -3.12530494      -1.34257340        2      -0.33083451      -0.44723785      -0.49305394
H        2.63837409      -3.52872992      -1.04472041        2      -0.72165799       0.56610525      -0.81115782
31
Properties=species:S:1:pos:R:3:molID:I:1:forces:R:3 Nmols=2 Comp=DEC(1):PC(1) energy=-1410.64404296875 pbc="F F F"
C       -2.17536664      -0.12906668      -1.11784172        0       0.39015222       0.66419280      -1.02345157
O       -1.34424663      -0.81957370      -0.64080775        0       0.88350976      -1.11797321       0.93853378
O       -3.24678564       0.35303932      -0.51759273        0      -0.38729027       0.25069708       0.65702891
O       -2.10225153       0.32426533      -2.37789369        0      -2.09739876       1.11547995       0.57441902
C       -3.46582150       0.10677933       0.88375926        0      -0.53024673      -0.74074125       0.28327453