77
Properties=species:S:1:pos:R:3:molID:I:1:forces:R:3 Nmols=6 Comp=DEC(1):DMC(2):EC(2):EMC(1) energy=-3736.515625 pbc="F F F"
C       -1.83385191       1.12909904      -5.27613973        0       0.91079021       0.59380573       5.24793577
O       -1.84544096       1.46962502      -4.08675813        0      -1.00835347      -0.12797076      -1.16199017
O       -0.81386599       1.47580007      -5.98193979        0       1.84726954       0.26816583      -2.82832909
O       -2.59086690       0.21176207      -5.77056789        0      -0.30493665      -0.20634437      -1.78765142
C        0.20941499       2.36939910      -5.45872688        0      -3.01399207       2.35675645      -1.01595521
C       -3.81860003      -0.19891795      -5.26081276        0      -2.66720343       2.65955734      -3.39957261
H        0.80830398       2.90585497      -6.22674083        0      -0.69766784      -0.52758682      -0.17976415
H       -0.43291500       3.20440104      -4.97875213        0       1.36391544      -1.00138879      -0.03960767
H        0.91850897       1.85523894      -4.91552973        0       0.90371990      -1.13409710       1.59548926
H       -4.38113103      -0.59572596      -6.14403677        0       0.57091027       0.26547512       0.04266381
H       -3.74950680      -0.95236996      -4.64341974        0       1.12720370      -4.07339287       3.58476019
H       -4.57596097       0.47631904      -4.82629776        0       0.97612464       0.91542757      -0.06046072
C        0.93029276      -1.72367896       4.76980173        1      -1.65335035       2.84088016      -0.16023088
O        1.70018986      -2.79686798       5.02000247        1       1.16755247      -1.18721700       0.41293678
C        2.70069674      -2.49618496       5.82866775        1       1.23210144      -0.15303159       2.49265242
O        2.56099371      -1.10588099       6.34901153        1      -1.16190815      -2.41075349      -1.87298965
C        1.28101782      -0.60152198       5.83027040        1       0.22700369      -1.14862144       0.52912736
H        1.20347885      -1.30759300       3.78276264        1      -0.48535112      -0.39586335       0.16392195
H       -0.15098518      -1.93216814       4.81819736        1       0.39076322      -0.20779556      -0.19498113
O        3.49970678      -3.34180202       6.20364343        1      -1.69950807       3.02156329      -0.82557631
H        1.38214985       0.33114596       5.23239957        1       0.20066556      -0.31924933       1.03055227
H        0.49058083      -0.50950404       6.69036447        1       1.54220271      -0.15575556      -1.43041694
C       -4.60754379       2.63073434      -1.18642231        2      -0.89534140      -0.96213794       0.98060143
O       -3.86599859       3.56218614      -0.95730635        2      -1.67761862      -2.25505924      -0.48131225
O       -5.11451897       1.62768712      -0.18845236        2      -0.24063301       2.19740105      -4.03744221
O       -5.24712166       2.21790232      -2.31521937        2       1.58507276       0.76092541       0.52834249
C       -4.60003265       1.74823417       1.06525466        2      -0.58995676       0.76226026       1.15457213
C       -5.03925499       2.96900930      -3.51630327        2      -1.06607699       1.26701689      -0.67955136
H       -4.77795299       0.83546521       1.58654371        2      -0.28680980      -0.48478740       0.47149962
H       -3.59713587       1.89867629       0.88943664        2       2.91684151       0.24734458       0.39114681
H       -4.96085295       2.62628331       1.62135462        2      -0.31502753      -0.26146692      -0.03795011
H       -5.65068277       2.53123226      -4.35545226        2       0.20818359       0.29308355       1.26078701
H       -5.26330265       4.03460016      -3.28051325        2      -0.83319157      -0.44791281       0.02286190
H       -4.08317455       3.16231622      -3.97079154        2       1.18673694      -1.10503054       0.42896551
C        3.70112078       3.70429236       0.08967109        3       6.07219887       0.06907280      -1.53487706
O        5.03244584       3.73635251      -0.11905291        3      -6.79456043      -1.19388998       1.34428144
O        2.81571381       2.67851359       0.19525609        3       2.17218995       0.53934014      -0.65663302
O        3.08117788       4.85766751       0.07332309        3      -1.62048852      -0.29071498       1.14590597
C        3.26174681       1.36178142      -0.17558291        3       0.30795908      -0.49123907      -0.63570380
C        3.68094962       6.17464835       0.18470508        3       1.89516008      -3.02209663       2.30469346
C        2.17372887       0.36188954       0.14077209        3      -0.98132938      -2.31860161       0.74301928
H        3.70850890       1.24178654      -1.19944086        3      -1.02204442       0.80561793       0.42393219
H        4.13883154       1.14406353       0.45944009        3      -1.16090858       1.28098512      -1.39142179
H        4.36655466       6.29060132       1.11052105        3      -1.08159459      -0.32732931      -1.48243570
H        4.13625376       6.21272236      -0.72750893        3       2.18534684       1.02359855      -2.28108597
H        2.44238679      -0.67672247      -0.00996991        3       1.07473803      -0.19572592      -0.92691064
H        2.12067168       0.27920658       1.24076614        3      -1.21663368       1.34007502      -0.55851161
H        1.15490680       0.20842052      -0.37262192        3       1.39462399       2.01634598       0.63749456
H        2.87197583       6.77449852       0.18342509        3      -2.45984650       2.15682387       0.53856242
C        5.10740771      -0.50345900       1.02780885        4      -0.21046579       1.55497670      -4.81763268
O        4.35471501       0.31792398       1.84430677        4      -0.16595650       2.21254396       2.33100557
C        3.66636004      -0.37496701       2.74321681        4       0.01660204      -0.89303482       2.34431267
O        4.15639367      -1.62193796       2.71895176        4       1.64454722      -1.15715814      -0.39931786
C        5.33145490      -1.71580001       1.74970180        4       0.57356834       0.32985175       3.03207827
H        4.34884992      -0.76027503       0.20811480        4       1.44277358      -0.01992958       0.31063503
H        5.97438874       0.04610899       0.46399480        4      -1.34800065      -0.94883484       1.37821603
O        2.83755984       0.03950299       3.53108698        4       1.65548694      -0.56965357      -1.88460290
H        5.30468001      -2.59577712       1.21560675        4      -0.91890621      -1.92702305      -0.99616838
H        6.40798774      -1.73028704       2.11489779        4      -1.21236944       0.14322451       0.88665271
C       -2.68539130      -3.23184506      -1.38702589        5       0.42639866      -4.77565289       0.38628054
O       -2.17742836      -2.62260405      -2.23395889        5      -0.01667869       1.54291284      -2.80019951
O       -2.49298536      -3.04796116      -0.13055485        5      -1.10471165       0.36680627       2.07597446
O       -3.14275038      -4.62926118      -1.48948389        5      -1.34663403       2.95608020       2.11966753
C       -2.24853050      -1.72193925       0.28131015        5      -0.30055085       1.77510381       2.41983676
C       -3.28168141      -5.30291716      -2.69633477        5       3.13689947       1.76703751      -2.30913973
C       -2.26212441      -1.61312525       1.89669413        5      -1.45700002       0.20597637       1.31558061
H       -1.23248433      -1.42077510      -0.08426886        5      -0.76087207       0.03415368       0.29491791
H       -3.07519137      -1.00592212      -0.00700385        5       0.76506299      -0.83249223      -0.37612557
C       -3.71914732      -6.73270623      -2.45487183        5      -6.74172020       1.79103947      -2.08588600
H       -3.72624027      -4.69143121      -3.60921686        5      -0.39099374      -1.26967275       1.88116193
H       -2.20245134      -5.10441129      -2.97845786        5      -0.32670403      -1.95949650      -0.86436683
H       -4.31953823      -7.13499419      -3.40754193        5       2.21598053       0.53290540       1.36010921
H       -3.22057950      -7.50558822      -1.96553295        5       1.08852804      -0.17845589       0.50517392
H       -4.82099544      -6.49050919      -1.89762276        5       2.69822717      -0.83938998      -0.22134733
H       -2.01573240      -0.65080420       2.42909104        5      -0.08371502      -0.31643271      -1.58128774
H       -3.19746839      -1.92080514       2.54010922        5       1.08974326       0.25741908      -2.21756363
H       -1.52192747      -2.27279417       2.24705607        5       1.10651994      -1.05926645       0.09669158
77
Properties=species:S:1:pos:R:3:molID:I:1:forces:R:3 Nmols=6 Comp=DEC(1):DMC(2):EC(2):EMC(1) energy=-3736.8818359375 pbc="F F F"
C       -1.89711549       1.16727947      -5.46392165        0       0.91111892       0.59450042       5.24900055
O       -1.90870454       1.50780545      -4.27454005        0      -1.01709664      -0.12167192      -1.16221285
O       -0.87712957       1.51398050      -6.16972171        0       1.84732318       0.26819241      -2.82847619
O       -2.65413048       0.24994250      -5.95834981        0      -0.29994440      -0.20704603      -1.79059041
C        0.14615141       2.40757953      -5.64650880        0      -3.01398540       2.35675430      -1.01597273
C       -3.88186361      -0.16073752      -5.44859468        0      -2.66883230       2.65920067      -3.39441633
H        0.74504040       2.94403540      -6.41452275        0      -0.69766611      -0.52758384      -0.17976612
H       -0.49617858       3.24258147      -5.16653405        0       1.36393034      -1.00137365      -0.03961396
H        0.85524539       1.89341937      -5.10331165        0       0.90372080      -1.13409650       1.59549177
H       -4.44439461      -0.55754553      -6.33181869        0       0.57010984       0.26523525       0.04057068
H       -3.81277038      -0.91418953      -4.83120166        0       1.12652707      -4.06964254       3.58253241
H       -4.63922455       0.51449947      -5.01407968        0       0.98939025       0.89054054      -0.06534633
C        1.00515537      -1.79498071       4.97058436        1      -1.66759300       2.80872011      -0.14214301
O        1.77505247      -2.86816973       5.22078510        1       1.17125273      -1.20343304       0.42756748
C        2.77555935      -2.56748671       6.02945038        1       1.23336422      -0.15549469       2.49191666
O        2.63585632      -1.17718274       6.54979416        1      -1.14806724      -2.42517757      -1.86078668
C        1.35588043      -0.67282373       6.03105303        1       0.22337162      -1.14005971       0.54665220
H        1.27834146      -1.37889475       3.98354527        1      -0.40657255      -0.32680237       0.08344102
H       -0.07612257      -2.00346989       5.01897999        1       0.37416536      -0.21693283      -0.17951012
O        3.57456939      -3.41310377       6.40442606        1      -1.69988644       3.02179432      -0.82553160
H        1.45701246       0.25984421       5.43318220        1       0.20383248      -0.27731216       1.01643181
H        0.56544344      -0.58080579       6.89114710        1       1.53251028      -0.16239202      -1.41533518
C       -4.77557771       2.71802684      -1.22835401        2      -0.89521050      -0.96226597       0.98125339
O       -4.03403251       3.64947864      -0.99923805        2      -1.67764699      -2.25509453      -0.48134145
O       -5.28255289       1.71497962      -0.23038406        2      -0.24062347       2.19740844      -4.03743362
O       -5.41515558       2.30519482      -2.35715107        2       1.58572531       0.76012456       0.53272533
C       -4.76806657       1.83552667       1.02332296        2      -0.58996665       0.76225573       1.15459847
C       -5.20728891       3.05630180      -3.55823497        2      -1.06761742       1.27244139      -0.67727113
H       -4.94598691       0.92275771       1.54461201        2      -0.28676683      -0.48482955       0.47146297
H       -3.76516979       1.98596879       0.84750494        2       2.91686058       0.24734722       0.39114064
H       -5.12888687       2.71357581       1.57942292        2      -0.31502914      -0.26146185      -0.03794338
H       -5.81871669       2.61852476      -4.39738396        2       0.19225883       0.31238669       1.25900316
H       -5.43133657       4.12189266      -3.32244495        2      -0.83074677      -0.44368708       0.02622253
H       -4.25120847       3.24960872      -4.01272324        2       1.19416738      -1.11763477       0.42638227
C        3.82155395       3.82044001       0.09169893        3       6.07634830       0.08057095      -1.53597510
O        5.15287901       3.85250016      -0.11702507        3      -6.79597998      -1.19406080       1.34446013
O        2.93614698       2.79466124       0.19728393        3       2.01142025       0.72655666      -0.65922916
O        3.20161105       4.97381516       0.07535093        3      -1.61985922      -0.29082990       1.14608657
C        3.38217998       1.47792907      -0.17355507        3       0.55082864      -0.71718359      -0.31214303
C        3.80138279       6.29079600       0.18673292        3       1.89503455      -3.02241206       2.30466986
C        2.29416204       0.47803719       0.14279993        3      -1.09817660      -2.36310577       0.70866609
H        3.82894207       1.35793419      -1.19741302        3      -0.98348975       0.75667423       0.47958428
H        4.25926471       1.26021118       0.46146793        3      -0.89375806       0.89385903      -0.75001723
H        4.48698783       6.40674897       1.11254889        3      -1.08157516      -0.32730579      -1.48241973
H        4.25668693       6.32887001      -0.72548109        3       2.18534136       1.02361965      -2.28108501
H        2.56281996      -0.56057482      -0.00794207        3       1.14332128      -0.17776823      -0.90324467
H        2.24110485       0.39535423       1.24279398        3      -1.01004469       1.25055790      -0.42101657
H        1.27533997       0.32456817      -0.37059408        3       1.36828780       1.99963331       0.60728979
H        2.99240900       6.89064617       0.18545293        3      -2.45984983       2.15685368       0.53856379
C        5.25752347      -0.52617391       1.10819517        4      -0.21120870       1.52466154      -4.49682808
O        4.50483077       0.29520907       1.92469309        4      -0.53150374       2.48513746       1.26226866
C        3.81647580      -0.39768192       2.82360313        4       0.05270249      -0.55979377       1.96855152
O        4.30650943      -1.64465287       2.79933808        4       1.62078333      -1.32011843      -0.34839725
C        5.48157066      -1.73851492       1.83008812        4       0.58219230       0.23681623       3.10433769
H        4.49896568      -0.78298994       0.28850112        4       1.15743208       0.19308865       0.17384493
H        6.12450450       0.02339408       0.54438112        4      -1.30154943      -0.86649042       1.35961151
O        2.98767560       0.01678808       3.61147330        4       1.64419425      -0.62698907      -1.85016084
H        5.45479577      -2.61849203       1.29599307        4      -0.90853214      -1.93198419      -0.98440486
H        6.55810350      -1.75300195       2.19528411        4      -1.20873666       0.14710143       0.88428319
C       -2.78287020      -3.35980008      -1.42325358        5       0.42639944      -4.77565145       0.38628531
O       -2.27490726      -2.75055907      -2.27018658        5      -0.01668084       1.54290855      -2.80020189
O       -2.59046426      -3.17591618      -0.16678254        5      -1.10471904       0.36679864       2.07596779
O       -3.24022928      -4.75721620      -1.52571158        5      -1.34663379       2.95608187       2.11966658
C       -2.34600940      -1.84989427       0.24508246        5      -0.30054456       1.77510309       2.41983700
C       -3.37916031      -5.43087218      -2.73256246        5       3.13690019       1.76703835      -2.30913925
C       -2.35960331      -1.74108027       1.86046644        5      -1.45700240       0.20597970       1.31557965
H       -1.32996323      -1.54873012      -0.12049655        5      -0.75899351       0.03545056       0.29469171
H       -3.17267027      -1.13387714      -0.04323154        5       0.76502705      -0.83245027      -0.37608778
C       -3.81662622      -6.86066125      -2.49109952        5      -6.74172020       1.79104340      -2.08588696
H       -3.82371917      -4.81938623      -3.64544455        5      -0.39099368      -1.26967216       1.88116169
H       -2.29993024      -5.23236631      -3.01468555        5      -0.32670510      -1.95949817      -0.86436790
H       -4.41701713      -7.26294921      -3.44376962        5       2.21598053       0.53290737       1.36010909
H       -3.31805840      -7.63354324      -2.00176064        5       1.08853078      -0.17846042       0.50517631
H       -4.91847434      -6.61846421      -1.93385045        5       2.69822574      -0.83939087      -0.22134787
H       -2.11321130      -0.77875922       2.39286335        5      -0.08371466      -0.31643450      -1.58128774
H       -3.29494729      -2.04876016       2.50388153        5       1.08974481       0.25741768      -2.21756291
H       -1.61940637      -2.40074919       2.21082838        5       1.10689878      -1.05917168       0.09740725
77
Properties=species:S:1:pos:R:3:molID:I:1:forces:R:3 Nmols=6 Comp=DEC(1):DMC(2):EC(2):EMC(1) energy=-3737.066162109375 pbc="F F F"
C       -1.96262001       1.20681233      -5.65835523        0       0.91141039       0.59477472       5.24914122
O       -1.97420906       1.54733831      -4.46897363        0      -1.01771045      -0.12125516      -1.16219950
O       -0.94263409       1.55351336      -6.36415529        0       1.84730041       0.26820445      -2.82846737
O       -2.71963500       0.28947536      -6.15278339        0      -0.29757333      -0.20757610      -1.79203808
C        0.08064689       2.44711239      -5.84094238        0      -3.01399279       2.35674953      -1.01597548
C       -3.94736813      -0.12120466      -5.64302826        0      -2.66876030       2.65791488      -3.39215350
H        0.67953588       2.98356826      -6.60895633        0      -0.69766605      -0.52758348      -0.17976624
H       -0.56168310       3.28211433      -5.36096763        0       1.36393261      -1.00137150      -0.03961378
H        0.78974087       1.93295223      -5.29774523        0       0.90372193      -1.13409686       1.59549260
H       -4.50989913      -0.51801267      -6.52625227        0       0.56970793       0.26582143       0.04050565
H       -3.87827490      -0.87465667      -5.02563524        0       1.12571263      -4.06649780       3.58099699
H       -4.70472907       0.55403233      -5.20851326        0       0.99705106       0.87639081      -0.06982231
C        1.08266978      -1.86880812       5.17847916        1      -1.66425967       2.79653502      -0.15225679
O        1.85256688      -2.94199714       5.42867990        1       1.17693758      -1.22369599       0.44435558
C        2.85307376      -2.64131412       6.23734518        1       1.23489201      -0.15726757       2.49180841
O        2.71337073      -1.25101015       6.75768896        1      -1.13296676      -2.44106364      -1.84865689
C        1.43339484      -0.74665114       6.23894783        1       0.23093867      -1.11138475       0.54497910
H        1.35585587      -1.45272216       4.19144007        1      -0.35320878      -0.27211958       0.02266121
H        0.00139184      -2.07729730       5.22687479        1       0.36362541      -0.22423983      -0.17072153
O        3.65208380      -3.48693118       6.61232086        1      -1.70026839       3.02198362      -0.82559395
H        1.53452687       0.18601680       5.64107700        1       0.22442073      -0.25502360       0.98775411
H        0.64295785      -0.65463320       7.09904190        1       1.52764297      -0.16434410      -1.40835547
C       -4.94956378       2.80841144      -1.27177102        2      -0.89510560      -0.96234453       0.98174572
O       -4.20801858       3.73986324      -1.04265506        2      -1.67767012      -2.25511932      -0.48136365
O       -5.45653896       1.80536422      -0.27380107        2      -0.24061930       2.19740677      -4.03741884
O       -5.58914165       2.39557942      -2.40056808        2       1.58597040       0.75976992       0.53461266
C       -4.94205264       1.92591127       0.97990595        2      -0.58993542       0.76226300       1.15461504
C       -5.38127498       3.14668640      -3.60165198        2      -1.06754649       1.27117145      -0.67888737
H       -5.11997298       1.01314231       1.50119500        2      -0.28676677      -0.48483580       0.47146940
H       -3.93915586       2.07635339       0.80408793        2       2.91683674       0.24734560       0.39114037
H       -5.30287294       2.80396041       1.53600591        2      -0.31502789      -0.26145566      -0.03793629
H       -5.99270276       2.70890936      -4.44080097        2       0.18278706       0.32604420       1.26297271
H       -5.60532264       4.21227726      -3.36586196        2      -0.83005160      -0.44287091       0.02702284
H       -4.42519454       3.33999332      -4.05614025        2       1.19399500      -1.11885011       0.42592764
C        3.94625314       3.94070187       0.09379861        3       6.06834412       0.10164109      -1.53609860
O        5.27757820       3.97276202      -0.11492539        3      -6.79670191      -1.19391346       1.34439611
O        3.06084617       2.91492310       0.19938361        3       1.90481722       0.85449696      -0.68554062
O        3.32631024       5.09407702       0.07745061        3      -1.61958718      -0.28853989       1.14586365
C        3.50687917       1.59819093      -0.17145539        3       0.65864807      -0.68659616      -0.27228111
C        3.92608198       6.41105786       0.18883260        3       1.89502168      -3.02232933       2.30467534
C        2.41886123       0.59829905       0.14489961        3      -1.27173305      -2.37576413       0.68077797
H        3.95364126       1.47819605      -1.19531334        3      -0.98906285       0.70943362       0.46876281
H        4.38396390       1.38047304       0.46356761        3      -0.61658919       0.44554085      -0.14113951
H        4.61168702       6.52701083       1.11464857        3      -1.08155215      -0.32728001      -1.48240006
H        4.38138612       6.44913187      -0.72338141        3       2.18533516       1.02362347      -2.28108358
H        2.68751915      -0.44031296      -0.00584239        3       1.22964966      -0.19719553      -0.86919111
H        2.36580404       0.51561609       1.24489366        3      -0.83073014       1.13261127      -0.24507165
H        1.40003916       0.44483003      -0.36849440        3       1.33871973       1.99044943       0.58244324
H        3.11710819       7.01090803       0.18755261        3      -2.45985031       2.15686774       0.53856456
C        5.41295666      -0.54969343       1.19142895        4      -0.34953380       1.74722648      -4.43985367
O        4.66026396       0.27168955       2.00792687        4      -0.51007688       2.64669514       0.67997009
C        3.97190899      -0.42120144       2.90683691        4      -0.17319500      -0.31182775       1.76081204
O        4.46194262      -1.66817239       2.88257186        4       1.61648297      -1.39557505      -0.32016706
C        5.63700385      -1.76203444       1.91332190        4       0.58227265       0.18365788       3.15559506
H        4.65439887      -0.80650946       0.37173490        4       1.04649687       0.20312428       0.11211127
H        6.27993769      -0.00012544       0.62761490        4      -1.25744283      -0.85647571       1.35912693
O        3.14310879      -0.00673144       3.69470708        4       1.63376498      -0.72327155      -1.85004020
H        5.61022896      -2.64201155       1.37922685        4      -0.90333974      -1.93695903      -0.97884870
H        6.71353669      -1.77652147       2.27851789        4      -1.20791399       0.15097970       0.88264292
C       -2.88380203      -3.49228756      -1.46076453        5       0.42639256      -4.77566385       0.38628983
O       -2.37583909      -2.88304655      -2.30769753        5      -0.01667440       1.54291666      -2.80020857
O       -2.69139609      -3.30840366      -0.20429349        5      -1.10471892       0.36679626       2.07596731
O       -3.34116111      -4.88970368      -1.56322253        5      -1.34663248       2.95609093       2.11967254
C       -2.44694123      -1.98238175       0.20757151        5      -0.30054700       1.77510250       2.41983795
C       -3.48009214      -5.56335966      -2.77007341        5       3.13689923       1.76703668      -2.30914068
C       -2.46053514      -1.87356775       1.82295549        5      -1.45700550       0.20597678       1.31558239
H       -1.43089506      -1.68121760      -0.15800750        5      -0.75899136       0.03545063       0.29469243
H       -3.27360210      -1.26636462      -0.08074249        5       0.76502568      -0.83244818      -0.37608451
C       -3.91755805      -6.99314873      -2.52861047        5      -6.74172592       1.79104269      -2.08588934
H       -3.92465100      -4.95187371      -3.68295550        5      -0.39099351      -1.26967299       1.88116217
H       -2.40086207      -5.36485379      -3.05219650        5      -0.32670426      -1.95949888      -0.86436927
H       -4.51794896      -7.39543669      -3.48128057        5       2.21598339       0.53290629       1.36011076
H       -3.41899023      -7.76603072      -2.03927159        5       1.08852935      -0.17845953       0.50517529
H       -5.01940617      -6.75095169      -1.97136140        5       2.69823074      -0.83938986      -0.22134709
H       -2.21414313      -0.91124670       2.35535240        5      -0.08371446      -0.31643367      -1.58129013
H       -3.39587912      -2.18124764       2.46637058        5       1.08974648       0.25741991      -2.21756649
H       -1.72033820      -2.53323667       2.17331743        5       1.10690045      -1.05917168       0.09740609
77
Properties=species:S:1:pos:R:3:molID:I:1:forces:R:3 Nmols=6 Comp=DEC(1):DMC(2):EC(2):EMC(1) energy=-3737.173095703125 pbc="F F F"
C       -2.03044485       1.24774554      -5.85967609        0       0.91149950       0.59485734       5.24918032
O       -2.04203390       1.58827152      -4.67029449        0      -1.01771140      -0.12125766      -1.16221285
O       -1.01045893       1.59444657      -6.56547615        0       1.84729171       0.26821125      -2.82845879
O       -2.78745984       0.33040857      -6.35410425        0      -0.29726052      -0.20788890      -1.79231715
C        0.01282205       2.48804560      -6.04226324        0      -3.01399565       2.35674262      -1.01597536
C       -4.01519297      -0.08027145      -5.84434912        0      -2.66786647       2.65689278      -3.39158368
H        0.61171104       3.02450147      -6.81027719        0      -0.69766599      -0.52758449      -0.17976499
H       -0.62950794       3.32304754      -5.56228849        0       1.36393249      -1.00137138      -0.03961387
H        0.72191603       1.97388544      -5.49906609        0       0.90372050      -1.13409388       1.59548998
H       -4.57772397      -0.47707946      -6.72757313        0       0.56967711       0.26640862       0.04130429
H       -3.94609974      -0.83372346      -5.22695610        0       1.12513041      -4.06462479       3.57993078
H       -4.77255391       0.59496554      -5.40983412        0       0.98547441       0.89452583      -0.06402084
C        1.16292992      -1.94525067       5.39373806        1      -1.65771878       2.79741001      -0.17362523
O        1.93282702      -3.01843969       5.64393880        1       1.18440914      -1.24651337       0.46280771
C        2.93333390      -2.71775667       6.45260408        1       1.23593450      -0.15783072       2.49214983
O        2.79363087      -1.32745270       6.97294786        1      -1.12471700      -2.44984436      -1.84277821
C        1.51365498      -0.82309369       6.45420673        1       0.23535645      -1.09230304       0.55412197
H        1.43611601      -1.52916471       4.40669897        1      -0.35086799      -0.25324121      -0.01162517
H        0.08165198      -2.15373985       5.44213369        1       0.35873485      -0.22868991      -0.16649920
O        3.73234394      -3.56337373       6.82757976        1      -1.70044780       3.02205825      -0.82567525
H        1.61478701       0.10957425       5.85633590        1       0.25180379      -0.24251616       0.95356447
H        0.72321799      -0.73107575       7.31430080        1       1.52532148      -0.16528189      -1.40520859
C       -5.12971282       2.90199766      -1.31672595        2      -0.89512146      -0.96240175       0.98184216
O       -4.38816762       3.83344946      -1.08760999        2      -1.67765999      -2.25510883      -0.48137107
O       -5.63668800       1.89895044      -0.31875600        2      -0.24061406       2.19740224      -4.03740358
O       -5.76929069       2.48916564      -2.44552301        2       1.58605194       0.75983942       0.53491139
C       -5.12220168       2.01949749       0.93495102        2      -0.58996749       0.76226616       1.15462589