1
Lattice="20.0 0.0 0.0 0.0 20.0 0.0 0.0 0.0 20.0" Properties=species:S:1:pos:R:3 energy=-12.353708076955 pbc="T T T"
H        0.00000000       0.00000000       0.00000000
1
Lattice="20.0 0.0 0.0 0.0 20.0 0.0 0.0 0.0 20.0" Properties=species:S:1:pos:R:3 energy=-148.1794822322 pbc="T T T"
C        0.00000000       0.00000000       0.00000000
1
Lattice="20.0 0.0 0.0 0.0 20.0 0.0 0.0 0.0 20.0" Properties=species:S:1:pos:R:3 energy=-431.46315818255 pbc="T T T"
O        0.00000000       0.00000000       0.00000000
160
Lattice="16.0 0.0 0.0 0.0 16.0 0.0 0.0 0.0 16.0" Properties=species:S:1:pos:R:3:forces:R:3 temperature=300 density=0.4804407154267432 energy=-24033.16553133 virial="-2.139885725138149 -9.94668624738928 -5.792618990636561 -9.94668624738928 21.321164543608834 3.6026509968157407 -5.792618990636561 3.6026509968157407 11.514217796280544" pbc="T T T"
C       -6.07239200      -2.79192000      -1.61251200      -3.16689000       0.15810000      -1.67382000
C       -6.66405600      -1.50372800      -1.07123200      -0.61523000       0.64012000       1.86092000
O       -6.23202400      -0.44560000      -1.90852800       1.08760000      -0.16690000      -0.96114000
C       -5.45200800      -1.02281600      -2.86948800      -0.67185000       2.45104000      -2.87766000
O       -5.12938400      -0.42928000      -3.91316800       0.07938000      -0.87726000       2.03009000
O       -5.28813600      -2.31131200      -2.66955200       1.74404000      -0.79847000      -0.91566000
H       -6.94269600      -3.33561600      -2.12520000       1.12683000      -0.10811000       0.85635000
H       -5.49743200      -3.39128000      -0.95905600       0.61042000      -0.71587000       0.94443000
H       -6.30335200      -1.29006400      -0.07836800       0.27688000       0.14059000       0.75543000
H       -7.74544800      -1.39060800      -1.05344000      -0.43301000      -0.68268000       0.02074000
C       -7.11482400       6.12910400      -0.53184000      -0.55491000      -1.89358000      -1.62785000
C       -6.43607200       7.19292800      -1.39552000       0.71259000      -0.07746000      -0.67678000
O       -6.52016800       8.31363200      -0.53956800       2.35289000       2.17441000      -4.75121000
C       -7.16884000       8.07620800       0.49211200      -0.56780000       2.28782000       4.90135000
O       -7.32898400       8.93748800       1.33441600      -0.91347000      -0.18032000       0.66140000
O       -7.41797600       6.80518400       0.63803200      -1.42196000      -1.82614000       1.97593000
H       -6.56504800       5.18401600      -0.28641600      -0.01450000       0.73132000      -0.32182000
H       -8.06557600       5.85868800      -1.01864000       0.00599000      -0.33483000       0.03877000
H       -6.94063200       7.47883200      -2.35137600       0.39845000      -0.64803000       0.45306000
H       -5.36320800       7.03116800      -1.51256000       0.02350000      -0.33201000      -0.54538000
C       -5.24557600       4.54068800      -6.97900800       1.45381000      -0.59166000      -2.19689000
C       -3.89711200       4.02980800      -6.39921600      -0.10566000      -1.33673000      -0.74046000
O       -3.80514400       4.63016000      -5.10081600      -1.51491000       0.70383000      -0.30873000
C       -5.09773600       5.16260800      -4.82641600       1.69330000      -0.02986000       0.61586000
O       -5.34111200       5.70228800      -3.77619200      -0.33205000      -0.27420000      -0.48030000
O       -5.92327200       4.97619200      -5.87355200      -0.99170000       1.54173000       2.19089000
H       -5.91989600       3.78716800      -7.40862400       0.65775000      -0.23502000      -0.42554000
H       -5.02154400       5.33897600      -7.74571200      -0.55327000      -0.21065000       0.66345000
H       -3.00516000       4.18328000      -7.03777600      -0.28224000       0.59479000       0.34014000
H       -3.95295200       2.94009600      -6.28990400      -0.03226000      -0.21982000       0.27844000
C        6.78292000       5.65609600       3.40436800       1.66886000       2.43235000       0.78475000
C        7.74938400       4.55800000       3.76811200       1.43136000       0.90622000      -1.98154000
O        6.91421600       3.43156800       3.58147200       1.80674000      -1.43751000       1.19379000
C        5.72148000       3.82192000       3.14667200      -1.85008000      -4.64777000      -0.22580000
O        4.79968800       3.06792000       2.95910400      -0.32392000      -0.73925000       0.05488000
O        5.66692000       5.04390400       2.86825600      -1.11278000       4.26651000      -0.62417000
H        7.19250400       6.28510400       2.64161600       0.34676000       0.75922000      -0.50989000
H        6.62890400       6.27152000       4.30409600      -0.87363000       0.07829000      -0.10802000
H        8.18328800       4.71609600       4.75099200      -0.16387000      -0.61917000       0.57471000
H        8.62133600       4.64713600       3.01961600      -0.91215000      -0.94321000       0.79258000
C        6.79831200       0.98836800      -6.17009600       0.18655000       1.34360000       1.04586000
C        6.18872800      -0.38123200      -6.04787200      -0.17269000       0.23576000       0.06606000
O        5.59348000      -0.66947200      -7.30220800      -0.99185000       1.00435000      -2.06409000
C        4.97391200      -1.82428800      -7.50568000       0.86648000      -1.93399000       0.77713000
O        5.14634400      -2.79633600      -6.78577600      -0.32345000      -0.02875000       0.39158000
O        4.26628000      -1.88494400      -8.65190400       0.05229000       2.49316000       0.72741000
C        3.62911200      -3.08323200      -8.92596800      -0.77368000      -2.15607000      -1.90966000
H        7.60725600       0.97262400      -6.88024000       0.53249000       0.01178000      -0.63762000
H        7.27157600       1.31998400      -5.19440000      -0.50887000      -0.44498000      -0.67842000
H        6.08861600       1.81972800      -6.47678400       0.38570000      -1.04929000       0.26885000
H        5.41360800      -0.39035200      -5.30779200      -0.74990000      -0.01189000       0.74726000
H        6.86695200      -1.18129600      -5.78316800       0.66676000      -0.24907000       0.07914000
H        2.64565600      -2.99139200      -9.47932800       0.95187000       0.72127000       0.39682000
H        3.41877600      -3.77356800      -8.11609600       0.20358000       0.26279000       0.88478000
H        4.32117600      -3.62902400      -9.59163200      -0.24090000      -0.19928000      -0.13814000
C       -2.33975200       2.82339200       4.24227200      -0.37085000       0.85373000       1.12657000
C       -2.27426400       2.86483200       5.80547200      -0.73913000       0.73548000      -1.09036000
O       -2.48816800       1.54592000       6.38420800      -0.41618000      -1.18105000       0.95330000
C       -3.68370400       1.23171200       7.05424000       0.09682000       2.18606000       0.41092000
O       -4.61624800       2.02304000       7.06984000      -0.26528000      -0.14544000      -0.19023000
O       -3.64581600       0.11987200       7.80532800       1.13284000       0.18809000      -0.32174000
C       -4.70069600      -0.09611200       8.83937600       0.97741000      -0.77271000      -1.41501000
H       -3.33082400       2.60380800       3.84100800      -0.28739000      -0.29851000       0.18082000
H       -1.63252000       2.07409600       3.94145600       0.52191000      -0.46418000      -0.58177000
H       -2.08407200       3.82163200       3.81736000       0.21317000      -0.44954000       0.34393000
H       -2.89255200       3.67529600       6.21739200      -0.88592000      -0.55350000       0.04903000
H       -1.30418400       3.27809600       6.08368000       0.72946000      -0.86989000       0.21324000
H       -5.46890400      -0.62430400       8.30044800      -0.68717000      -0.46209000      -0.05494000
H       -5.11626400       0.81185600       9.21344000      -0.00902000       0.97628000       0.42468000
H       -4.23039200      -0.74316800       9.59163200      -0.07639000       0.30704000      -0.01376000
C        7.04160800      -2.67302400       4.34160000      -0.43086000       0.05554000       0.62420000
C        6.68968800      -2.71464000       2.83764800      -0.73956000       1.59004000       1.50463000
O        5.36152800      -3.16937600       2.58028800      -1.99288000      -1.24966000       0.14510000
C        4.96936800      -3.29147200       1.26516800       1.25804000       1.65889000       0.86806000
O        5.69791200      -2.88299200       0.38368000       0.02160000      -0.42751000      -0.99783000
O        3.69887200      -3.69363200       1.12982400       0.61420000      -1.22079000       1.68506000
C        3.19762400      -3.76376000      -0.20030400      -0.15020000       0.35619000      -0.44042000
H        6.97456800      -3.64620800       4.88875200      -0.49538000       0.32976000      -0.54567000
H        6.45205600      -1.89131200       4.88452800       0.10847000      -0.57432000      -0.27497000
H        8.10176800      -2.42236800       4.53836800      -0.07943000       0.20339000      -0.67491000
H        7.35751200      -3.30510400       2.33678400       1.89875000      -1.93204000      -1.45432000
H        6.77928800      -1.72760000       2.39195200       0.08627000       0.57473000      -0.01146000
H        3.71565600      -4.47392000      -0.88972800       0.10709000       0.38737000       0.58202000
H        3.33559200      -2.72180800      -0.50948800      -0.48443000      -0.08787000      -1.02335000
H        2.14016800      -4.08444800      -0.11184000       0.34361000       0.34781000       0.02386000
C        1.49016800       4.41672000       2.27094400      -0.99248000      -0.53350000       0.08627000
C        0.26552800       5.27732800       2.24561600      -0.20982000       0.60110000      -0.78310000
O       -0.17341600       5.68585600       3.51598400      -0.26851000       0.20337000       3.97476000
C       -1.24412000       6.47179200       3.77822400      -0.55026000       0.30490000      -0.18010000
O       -1.95450400       7.01312000       2.95939200      -0.01003000       0.09112000      -0.99130000
O       -1.51831200       6.62956800       5.11977600       1.93817000      -2.78982000       0.17210000
C       -2.39221600       7.66804800       5.48344000       0.60999000       1.82877000       0.48329000
H        1.85266400       4.12579200       1.29428800      -0.57677000      -0.36318000      -0.78828000
H        1.30594400       3.55953600       2.87848000       0.29071000      -1.00654000       0.56676000
H        2.32935200       4.96414400       2.58512000       1.21453000       0.89330000       1.25279000
H       -0.62346400       4.89792000       1.78192000      -0.38611000      -0.60713000      -1.00601000
H        0.62034400       6.15715200       1.78632000      -0.14612000       1.54122000      -1.31782000
H       -3.35114400       7.61481600       4.97318400      -0.55248000      -0.31395000       0.39322000
H       -1.87781600       8.48907200       5.02361600      -0.15817000       1.53491000      -0.31866000
H       -2.36508000       7.96713600       6.60500800      -0.25791000      -1.37448000      -1.52687000
C       -1.13764000      -1.14465600      -0.53360000      -0.85932000       0.66636000      -1.76330000
C       -1.33565600      -1.92264000       0.74907200       1.31286000       0.30171000      -0.18241000
O       -2.45138400      -2.83902400       0.62147200      -0.67741000       0.20218000      -0.26456000
C       -2.66591200      -3.69057600       1.64838400       3.57718000      -0.15445000       1.90348000
O       -1.85984800      -3.82288000       2.58160000      -0.51011000       0.57592000      -0.54531000
O       -3.69906400      -4.46684800       1.51320000      -1.54213000       0.04815000      -1.51157000
C       -3.74013600      -5.69086400       2.22950400       0.66719000      -0.57822000       0.85847000
H       -0.90437600      -1.81404800      -1.39641600      -0.29684000       0.20339000       0.34657000
H       -0.31999200      -0.37748800      -0.56100800      -0.23633000      -0.66434000       0.74908000
H       -2.05999200      -0.52468800      -0.80260800       0.71929000      -0.86502000       0.28128000
H       -1.46167200      -1.18598400       1.51867200      -0.80151000       0.30861000       0.96679000
H       -0.37661600      -2.40339200       1.03822400      -0.54842000      -0.53863000      -0.19079000
H       -3.34370400      -6.52219200       1.68179200       1.09666000      -0.33786000      -1.04273000
H       -4.74970400      -6.00129600       2.27388800      -1.60565000       0.25662000       0.63075000
H       -3.20853600      -5.71025600       3.19950400      -0.42658000       0.56352000      -0.22312000
C       -2.85258400       8.13128000      -2.97776000       0.32279000      -1.98080000       1.22295000
C       -1.97431200       6.84416000      -2.79598400      -1.91037000      -1.47324000      -0.64677000
O       -0.75200800       6.95320000      -3.58444800      -1.53634000       0.05522000       1.14144000
C       -0.01279200       5.85760000      -3.74148800       3.11616000       2.08209000      -2.60341000
O        0.97490400       5.99660800      -4.47144000      -0.50128000      -0.81941000       0.46373000
O       -0.33749600       4.77182400      -3.11459200      -2.71350000      -0.35387000       1.51080000
C        0.37762400       3.60198400      -3.31428800       2.39796000      -1.10456000      -1.16148000
H       -2.26328800       8.79816000      -2.36595200      -0.05258000       1.23858000      -0.14978000
H       -3.86693600       8.00040000      -2.45286400       1.26146000       0.09190000      -1.01018000
H       -2.89314400       8.37448000      -4.03804800      -0.29686000       0.35226000      -0.05380000
H       -2.49055200       5.85332800      -3.06016000       0.30690000       1.31461000      -0.20803000
H       -1.77063200       6.68507200      -1.74324800       0.56863000       0.27306000       0.58179000
H       -0.19453600       2.69937600      -3.07385600      -0.58713000       0.30984000       0.08505000
H        1.23556000       3.62846400      -2.58644800      -0.17478000      -0.17840000      -0.83403000
H        0.72655200       3.51712000      -4.41851200      -0.20514000       0.20281000       1.65076000
C       -7.51370400      -8.04150400       6.82132800      -0.93160000       1.54426000       1.35233000
C       -6.78605600      -6.69312000       6.41947200      -1.02145000      -0.82901000      -1.56999000
O       -5.38562400      -6.55251200       6.72692800       2.08870000      -0.94512000       0.95775000
C       -4.64324000      -5.55668800       6.13264000      -3.66095000       2.36229000      -1.26079000
O       -5.18621600      -4.80627200       5.31704000       0.14618000      -0.85166000      -0.23240000
O       -3.46213600      -5.24699200       6.63809600       0.56087000      -1.39285000       1.11313000
C       -2.74460000      -4.18352000       5.99572800       0.65136000       1.67624000       0.83687000
H       -8.62133600      -8.01473600       6.58336000       0.76568000       0.95243000       0.27795000
H       -7.47423200      -8.33208000       7.88139200       0.17450000       0.39958000       0.16116000
H       -7.32383200      -8.93748800       6.31240000       1.50528000      -1.27540000      -1.34238000
H       -7.30352800      -5.80872000       6.78401600      -0.21625000       0.11768000       0.51784000
H       -6.94908000      -6.66086400       5.32798400       0.42112000       0.26246000      -0.04140000
H       -2.23853600      -3.54427200       6.75302400      -0.05129000      -0.89241000       0.48458000
H       -3.33453600      -3.37337600       5.53678400      -0.42796000      -0.97042000      -0.61719000
H       -1.94791200      -4.59508800       5.39238400      -0.00620000      -0.17702000      -0.72643000
C       -4.09756000       3.69192000      -1.36241600      -1.87297000      -1.63103000       0.49381000
C       -4.34464800       2.38067200      -0.58200000       1.27763000      -0.94594000      -0.74125000
O       -5.00224800       2.56046400       0.67440000      -0.67973000       1.70418000       1.71512000
C       -5.06410400       1.49182400       1.48592000      -0.33899000      -3.51733000      -2.38980000
O       -4.75370400       0.36212800       1.04696000       0.33000000       1.14040000       0.99147000
O       -5.70372000       1.64916800       2.63558400       0.37835000       3.19888000       0.08680000
C       -5.76778400       0.56168000       3.54044800       1.51649000      -2.06511000      -2.53750000
H       -3.87432800       4.42768000      -0.62075200       0.52889000       1.08048000       0.15579000
H       -5.00165600       3.90683200      -1.93212800      -0.36266000       0.60720000       0.17333000
H       -3.38167200       3.51816000      -2.14852800       0.93283000       0.02775000      -0.02699000
H       -3.35184800       1.94310400      -0.33840000      -0.33731000      -0.14835000      -0.24290000
H       -4.93746400       1.64836800      -1.15854400       0.26745000       0.07011000      -0.01084000
H       -4.72656800       0.05604800       3.51344000      -1.72528000       0.16578000       0.21301000
H       -6.03525600       0.86222400       4.50067200      -0.31339000       1.16277000       1.74875000
H       -6.60208800      -0.01936000       3.11320000       0.43816000      -0.83953000       0.40445000
160
Lattice="16.0 0.0 0.0 0.0 16.0 0.0 0.0 0.0 16.0" Properties=species:S:1:pos:R:3:forces:R:3 temperature=300 density=0.4804407154267432 energy=-24034.01061056 virial="11.020911284539439 -6.144933306469074 -13.401928177730145 -6.144933306469074 12.096849191522034 -17.99259828520397 -13.401928177730145 -17.99259828520397 18.035138813579657" pbc="T T T"
C       -6.65120000       5.67840800      -5.93065600       1.35381000       1.50119000      -3.76721000
C       -6.96979200       7.13351200      -6.35254400      -1.44033000      -1.21792000       0.74947000
O       -8.04500800       6.92341600      -7.30084800      -0.75535000      -0.16519000      -0.47980000
C       -8.30739200       5.58911200      -7.47985600      -2.10741000      -0.57709000      -0.94807000
O       -9.18424000       5.10970400      -8.22454400       2.17238000       1.42356000       1.41607000
O       -7.55120000       4.83786400      -6.65720000       0.20188000      -0.09972000       0.05595000
H       -6.69292800       5.51276000      -4.94184000      -0.51107000      -0.76779000       3.72614000
H       -5.62406400       5.57954400      -6.29025600       0.20815000      -0.92976000       0.05004000
H       -6.18545600       7.56711200      -6.90846400       1.16771000       0.81507000      -0.43346000
H       -7.27459200       7.74021600      -5.48267200      -0.25375000       0.09316000      -0.41548000
C       -7.59451200       6.39047200       4.40337600      -1.19103000      -1.99817000      -0.88950000
C       -6.17982400       6.54328800       4.90489600       0.32597000       0.52948000       1.87654000
O       -5.47224000       7.12050400       3.82985600       0.67176000       0.47999000       0.57670000
C       -6.30897600       7.38904800       2.79868800       1.51465000      -0.62710000       0.37311000
O       -5.88961600       7.83978400       1.78081600      -0.25908000       0.76551000      -1.28596000
O       -7.50760000       6.91301600       3.06587200      -2.01895000       1.04051000      -0.45474000
H       -8.47054400       6.84208800       5.00603200       1.37365000      -0.57051000      -0.85507000
H       -7.75622400       5.31496800       4.11147200      -0.53405000       0.48419000       1.18713000
H       -5.63747200       5.62767200       5.18422400      -0.41256000      -0.18616000       0.04734000
H       -6.21072000       7.20431200       5.80664000       0.47667000      -0.02754000      -0.44800000
C        2.12502400      -3.92024800       1.30172800      -0.77763000       1.04842000       2.02717000
C        2.19048000      -5.28127200       1.95347200       0.12977000       0.23373000      -0.95987000
O        3.44099200      -5.72920800       1.43888000      -0.06451000      -2.94434000      -0.33349000
C        4.04145600      -4.80240800       0.73499200       5.72508000      -1.26474000      -1.07064000
O        5.21267200      -4.90124000       0.29251200      -2.67075000      -0.09902000       0.61565000
O        3.36347200      -3.71607200       0.68734400      -0.92611000       2.81746000      -0.83249000
H        1.98536000      -3.22880800       2.12920000       0.00809000       0.82011000      -0.03058000
H        1.34158400      -3.77968800       0.60320000      -0.95070000      -0.02107000      -0.99002000
H        1.28675200      -5.81124000       1.61963200       0.41585000      -0.83476000       0.38354000
H        2.42422400      -5.28076000       2.99419200      -0.95552000       0.15861000       1.14367000
C       -3.41916800       6.48989600      -2.66555200      -2.25451000      -1.13822000      -0.30615000
C       -4.56432000       7.17949600      -3.49289600      -0.51426000       1.19842000       2.22761000
O       -4.07492800       7.14581600      -4.79715200      -0.08349000       0.05033000      -1.33445000
C       -2.85033600       6.58876000      -4.81884800       0.88802000      -1.71239000      -1.92881000
O       -2.25488000       6.20599200      -5.80614400      -0.44372000       0.95840000      -0.27386000
O       -2.37091200       6.29925600      -3.61747200      -0.20471000       0.08241000       1.43312000
H       -3.91835200       5.51775200      -2.36691200       1.25005000       0.46251000       0.16765000
H       -3.05313600       7.07349600      -1.84427200       0.12319000       0.26943000       0.69442000
H       -4.68145600       8.21872800      -3.14819200       0.15807000       0.23631000      -0.26183000
H       -5.61662400       6.79511200      -3.35758400       0.97765000      -0.36048000      -0.37063000
C       -3.08913600       1.10376800      -3.93249600       0.17620000       1.11390000      -0.44448000
C       -3.69112000      -0.21048800      -4.28801600      -0.64455000      -0.65797000       0.87786000
O       -3.59600000      -0.23423200      -5.67256000       0.58667000       0.09625000      -4.03302000
C       -3.72134400      -1.36389600      -6.41526400      -0.50445000      -2.14426000       0.77223000
O       -3.83163200      -2.47895200      -5.91848000       0.21345000       0.21494000       0.09389000
O       -3.77795200      -1.16271200      -7.74515200       0.66470000       1.40459000      -0.83926000
C       -3.71572800      -2.27834400      -8.73697600      -1.09074000      -0.29829000       3.21903000
H       -2.07835200       1.16954400      -4.35793600       0.26251000      -0.34515000       0.32881000
H       -3.07697600       1.45500000      -2.90212800      -0.12797000      -0.37725000       0.34259000
H       -3.59745600       1.84468000      -4.53620800      -0.53624000       0.66197000      -0.05146000
H       -4.74328000      -0.42106400      -4.09752000      -0.49230000       0.58578000       0.70086000
H       -3.18096000      -1.01442400      -3.80692800       0.81840000      -1.06689000       0.20448000
H       -3.87676800      -1.91794400      -9.70097600       0.14324000       1.37316000      -1.61530000
H       -4.57734400      -2.90616800      -8.53316800      -0.28036000      -0.48370000       0.24539000
H       -2.83502400      -2.88282400      -8.63193600       0.83989000      -0.14571000       0.13870000
C       -2.92520000      -7.11468000       3.79827200      -0.32159000       1.19761000       1.26717000
C       -1.52595200      -6.43208800       3.83806400      -0.86232000       0.22622000      -1.12026000
O       -1.40102400      -5.61796000       5.04064000      -2.03834000      -0.07881000       0.98098000
C       -0.30824000      -4.93708000       5.38534400      -1.31006000      -2.42117000       0.09556000
O        0.66160000      -4.93850400       4.70580800       3.00909000       1.03817000      -1.64237000
O       -0.39811200      -4.53312800       6.65348800      -1.71149000      -0.00551000      -0.27434000
C        0.78228800      -4.07524000       7.24144000       0.32896000       0.42193000       1.22400000
H       -3.08632000      -7.70712800       4.69296000       0.26103000      -0.43497000       0.47008000
H       -3.20108800      -7.76692000       2.97312000       0.65768000       0.04515000      -0.57504000
H       -3.75699200      -6.38828000       3.89113600       0.33921000       0.17155000      -0.25314000
H       -1.44868800      -5.76199200       2.94792000       0.34686000      -0.51354000       0.44798000
H       -0.77596800      -7.22797600       3.82611200       0.47871000       0.22089000       0.03980000
H        1.20924800      -3.23026400       6.71870400      -0.08436000       0.81815000      -0.08207000
H        1.55876800      -4.81876000       7.19648000       0.44156000      -0.81719000       0.14551000
H        0.48553600      -3.88149600       8.29966400       0.48784000       0.17364000      -0.58080000
C        1.62316800      -7.51132000      -7.52531200      -0.63585000      -0.56831000       0.37325000
C        2.20696000      -7.58797600      -6.11947200      -1.54726000      -0.82351000      -0.90152000
O        2.11385600      -6.30016800      -5.57752000       0.41758000       2.26941000       0.81942000
C        2.91574400      -6.05452000      -4.53107200      -0.54675000       0.61345000       1.78539000
O        3.73520000      -6.83039200      -4.10744000       0.77629000      -0.13215000       0.09624000
O        2.55318400      -4.86828000      -3.84585600      -0.26221000      -0.58248000      -1.67748000
C        3.45769600      -4.42415200      -2.84584000       1.82810000       1.03052000      -0.20409000
H        2.32664000      -6.95287200      -8.11531200       0.65853000       0.04388000      -0.74719000
H        0.66624000      -6.97600800      -7.67867200       0.03593000      -0.24456000       0.66363000
H        1.48729600      -8.55236000      -7.86841600       0.17980000       0.27661000      -0.31250000
H        3.16536000      -8.05132000      -6.18825600       1.51480000       0.35933000      -0.00862000
H        1.71304000      -8.26047200      -5.42840000      -0.85767000      -0.39118000       0.17329000
H        3.39707200      -3.36812000      -2.48758400      -1.10051000      -0.46839000      -0.70850000
H        4.51196800      -4.47456800      -3.12972800       0.24601000      -0.10592000      -0.90397000
H        3.53169600      -5.03533600      -1.99792000      -0.74309000      -1.33939000       1.58242000
C        3.11936000       0.14260000      -5.46406400       1.73141000      -0.13545000      -0.13419000
C        3.82140800       0.49324000      -6.78062400      -0.66706000       1.10911000      -0.22374000
O        5.18364800       0.92396000      -6.56849600       1.20170000       0.44004000       0.71255000
C        6.04248000       1.17501600      -7.62968000      -3.16863000      -1.48664000      -1.14007000
O        5.62838400       1.12896800      -8.78560000       0.50535000       0.41441000       0.50665000
O        7.29475200       1.29746400      -7.24475200      -0.19741000       0.21725000       0.77726000
C        8.17358400       1.62472800      -8.30758400       1.59054000       2.75261000       0.57640000
H        3.68584000      -0.72044000      -5.01331200      -0.74062000       0.67350000       0.02844000
H        2.09864000      -0.08751200      -5.68656000      -0.83611000      -0.76198000      -0.38578000
H        3.01481600       0.98591200      -4.78984000       0.52089000       0.35317000       0.43905000
H        3.21585600       1.23412000      -7.35897600       0.56941000       0.06877000       0.32305000
H        3.79681600      -0.38196000      -7.38664000       0.35196000      -1.03448000      -0.80148000
H        9.18424000       1.49413600      -7.92120000       0.16325000      -0.25305000       0.18471000
H        8.13515200       2.72685600      -8.59980800      -0.41943000      -0.99690000       0.47439000
H        8.05200000       1.07674400      -9.18920000      -0.57046000      -1.30955000      -1.35046000
C       -3.84860800      -2.50303200       1.60987200      -0.41563000      -1.34836000      -0.77438000
C       -2.97064000      -3.81983200       1.47516800      -2.34662000       1.65612000       3.21705000
O       -2.12163200      -3.70047200       0.42763200       1.45627000       2.44564000      -2.14601000
C       -1.43576000      -4.74255200       0.11152000       0.27503000      -4.56689000       0.13203000
O       -1.60483200      -5.87847200       0.58624000      -0.08732000       1.03088000       0.33127000
O       -0.55355200      -4.57240800      -0.86692800       0.17714000       1.76182000      -0.62123000
C        0.01360000      -5.74682400      -1.39446400      -0.20294000      -1.07568000      -1.53647000
H       -4.35422400      -2.34223200       2.56491200       0.50842000      -0.38667000       0.59156000
H       -4.72979200      -2.64532000       0.96184000       0.29595000       0.38231000      -0.45735000
H       -3.29857600      -1.59284000       1.36408000       0.16659000       0.00670000      -0.19964000
H       -3.56107200      -4.70933600       1.39352000      -0.83240000      -0.64327000      -0.25884000
H       -2.44329600      -3.95266400       2.41848000       0.59424000       0.00253000       0.28028000
H       -0.65412800      -6.61479200      -1.39644800      -0.30191000       0.15147000       0.26442000
H        0.91859200      -6.05677600      -0.94016000       1.09812000      -0.14972000       1.33359000