23
Properties=species:S:1:pos:R:3:molID:I:1:forces:R:3 Nmols=2 Comp=EMC(1):VC(1) energy=-1208.9688874886076 pbc="F F F"
C        1.40669906      -0.94852668       1.34895813        0       2.32209806      -1.36149745       1.35305622
O        2.40962720      -1.28579569       1.94060218        0      -0.93034583      -0.06772683       0.92588374
O        0.12933208      -1.04362166       1.73212218        0       0.55083753       0.23975581      -1.13150963
O        1.47688103      -0.50123066       0.16977718        0      -1.87263633       1.71403970      -4.24955330
C       -0.04094892      -1.35957861       3.04710722        0      -2.48680901      -3.74790181       2.09144471
C        2.63086009      -0.44012067      -0.69729584        0       0.38554773      -0.24496557       1.12328954
C       -1.63370895      -1.50622070       3.27897310        0       1.48767602       3.08787530      -5.70766593
H        0.40394607      -2.40141869       3.38785219        0      -0.48842794       1.42835009      -1.05681850
H        0.45089409      -0.68009967       3.66465807        0       0.45790000       1.44982146       1.23365827
H        3.36547112       0.15588234      -0.10162982        0      -0.02011064      -0.67273594      -0.88768783
H        2.91504097      -1.48023367      -0.91267079        0       0.46469648       0.29504571       0.37678960
H       -1.94975197      -1.75659466       4.21205616        0      -0.57893829      -1.35669346       1.82948353
H       -2.05149293      -0.44585866       3.06940317        0       0.56957699      -1.24447699       0.56625400
H       -1.99269390      -2.01510978       2.26033020        0       0.50618465       0.21339738       2.76481614
H        2.40328908      -0.00330166      -1.68040287        0      -0.42650198       0.29326280       0.73325223
C       -1.72449291       1.32071137      -0.47724482        1      -2.46522956      -3.02021687       0.57723181
O       -0.49731091       1.17084932      -0.94350183        1       1.98559867       1.74348872       0.90392338
C       -0.59555292       1.32678330      -2.25614190        1       3.61695822      -1.17146379      -3.46991525
O       -1.80939388       1.20327735      -2.66971779        1      -2.63637341      -0.98049712       0.92020316
C       -2.54717183       0.93277031      -1.49749577        1      -1.67990462       3.50380618      -1.26876708
O        0.29996908       1.35905635      -3.09270382        1      -0.58109272       0.39330237       2.09794081
H       -3.61379600       1.21128833      -1.72711182        1       1.11449194      -0.91257458       0.74582369
H       -1.99838686       1.11892533       0.56570417        1       0.70480403       0.41860489      -0.47113331
23
Properties=species:S:1:pos:R:3:molID:I:1:forces:R:3 Nmols=2 Comp=EMC(1):VC(1) energy=-1208.1332265650974 pbc="F F F"
C       -0.69763237       2.77908134       1.23040593        0      -3.40099355       3.73366855      -0.50311952
O        0.41091162       2.90825939       0.90179396        0       2.85863919      -1.46953511      -0.06323474
O       -1.54747343       1.82928336       1.18552589        0      -1.25962631      -0.27124603       1.00382879
O       -1.47622144       3.99724841       1.42502689        0       1.34018777      -2.13573932      -0.21855311
C       -1.05164540       0.55792034       1.01647294        0       2.87473318      -1.31658539       0.07542092
C       -0.58076239       5.05312920       1.23254991        0      -0.18333137       0.35465267       1.68141717
C       -2.08044529      -0.48666269       1.21495795        0      -0.28567753      -1.36243107       1.66450549
H       -0.58454442       0.48634732       0.04012394        0      -0.02440863      -0.01564101      -0.77260744
H       -0.13467740       0.35334331       1.69473493        0      -1.23419237       0.39483264      -0.37958352
H       -0.06260440       5.23490810       2.17521095        0       0.23586590       0.14505615       0.19118782
H        0.14888860       4.83289528       0.50576496        0       0.71963538      -0.09709367      -1.05290425
H       -1.73312235      -1.46158373       0.79107195        0       0.22286501       0.49673928       1.24097049
H       -2.35824633      -0.45531067       2.34884787        0       0.29864805      -0.68695471      -2.10956842
H       -2.94100738      -0.36219668       0.61415994        0      -1.11846964       0.89361603      -0.29386492
H       -1.12611735       5.90846729       0.99187595        0      -1.02325612       1.33631224      -0.47527819
C       -0.08214340      -3.62099671      -1.75664902        1       3.98502961      -2.23244420      -0.31400492
O        0.70271158      -2.58156061      -2.27889895        1      -4.74929131      -0.01151775       0.54633540
C        1.51702058      -2.24412274      -1.30315304        1       2.91865994      -2.56989903      -1.70220926
O        1.84426665      -3.32881665      -0.58488607        1      -2.76431798      -3.25003443      -0.27033208
C        0.80931163      -4.41899586      -1.06022000        1      -0.24504132       3.45544033       2.22729869
O        2.26134372      -1.36615074      -1.48889709        1       1.31563271       3.11824166       1.01747861
H        0.68980759      -5.35269451      -0.45185906        1       0.39874066       1.45227584      -0.70782184
H       -0.94944340      -3.98191357      -2.21206117        1      -0.88003126       0.03828635      -0.78536117
22
Properties=species:S:1:pos:R:3:molID:I:1:forces:R:3 Nmols=2 Comp=DMC(1):EC(1) energy=-1152.560290013956 pbc="F F F"
C        3.61284208      -2.07550406       0.22518750        0      -1.93616933      -1.04678410      -1.45255757
C        3.75244713      -3.59650588       0.06730349        0       0.73242927       0.05718601      -1.45930917
O        3.49376106      -3.82976699      -1.34206152        0       0.34501112       0.09339608       1.22763245
C        3.66125512      -2.66054893      -1.99677956        0      -1.60522172      -0.85755265      -1.90987982
O        3.62495208      -2.64322686      -3.21021342        0       0.51567532       0.68243565       2.34426132
O        3.58672094      -1.63819695      -1.13761151        0       1.12659885       0.55041461      -0.07409474
H        2.69311810      -1.68178594       0.65247649        0      -0.39710385      -0.34856392       0.18507885
H        4.39196014      -1.77501500       0.83347249        0       1.88471392       1.28792424       0.64135357
H        4.79914284      -3.87108588       0.18849850        0       0.38391226      -0.02062726       0.21856728
H        3.20638895      -4.23945999       0.70763350        0      -1.04942719      -0.39679790       0.27754714
C       -3.46759295       0.39978606       1.80026948        1       1.52152565      -0.03023893       0.16119803
O       -2.97357607       1.54546702       1.06417453        1      -1.36028493       0.64551086       0.17095814
C       -3.68755794       2.70816302       1.22221446        1       0.38439992      -0.94967857       0.26887427
O       -4.68780279       2.74251199       1.89068353        1       0.64943414       0.74011008      -0.62214619
O       -3.02453804       3.67995095       0.56466550        1      -0.06944331      -1.39944123       0.24565623
C       -3.40832901       5.01135302       0.69437551        1      -0.54575979       1.25311076       0.02827006
H       -2.75606489      -0.34492496       1.41046655        1      -0.38057380      -0.17491006       0.31643158
H       -3.22423792       0.57276303       2.88537145        1      -0.65001670      -0.21734622      -0.86092340
H       -4.49957609       0.04107006       1.62627149        1       0.49898474       0.83471631       0.03018350
H       -3.64559507       5.22525692       1.76454043        1      -0.31520791      -0.01021325      -0.79753675
H       -2.52239585       5.64242887       0.43704748        1      -0.63304630      -0.56597930      -0.03023745
H       -4.26611900       5.24361420      -0.02387951        1       0.89956964      -0.12667119       1.09067267
10
Properties=species:S:1:pos:R:3:molID:I:1:forces:R:3 Nmols=1 Comp=EC(1) energy=-562.0649624611008 pbc="F F F"
C        0.04702185       0.83415061      -1.35688162        0       0.23601499       0.41096571      -1.60807914
O       -0.50411916       0.92041564      -0.09821067        0      -1.88090166       1.30256782       0.57425533
C       -0.22546014      -0.08585037       0.71164131        0      -0.24942057       0.78461692       2.98907030
O        0.56264788      -0.94790435       0.08703933        0       0.51560486      -1.18424360       0.30139012
C        0.66519684      -0.67460239      -1.26913261        0      -1.84982947       1.76490175      -1.40312472
H       -0.69738817       1.32375765      -2.22990465        0       1.30179891      -2.19061874       2.02863610
H        0.84714788       1.58321857      -1.37349868        0       0.44046891      -0.17592419      -0.13713418
O       -0.53938913      -0.08326737       1.89579630        0       0.71275371      -0.48581792      -2.98641389
H        0.02858885      -1.36701536      -1.84039462        0       0.14775824      -0.02078927       0.04469509
H        1.65750480      -0.65968937      -1.67245662        0       0.62575207      -0.20565846       0.19670498
34
Properties=species:S:1:pos:R:3:molID:I:1:forces:R:3 Nmols=3 Comp=DEC(1):VC(2) energy=-1828.733288274743 pbc="F F F"
C       -0.09173039      -1.03795123       1.13215828        0       0.12078738       2.18305523       0.13702028
O        0.66122359       0.21716379       1.06796718        0      -1.46116683      -2.61957473       0.26622182
C        2.00051570      -0.15963122       1.04819417        0      -5.59784874      -1.80617216       0.11121149
O        2.12524271      -1.43898916       1.02832723        0      -1.39288961      -2.45571533      -0.48615725
C        0.82325763      -1.99034119       1.03538823        0       1.37711544      -3.23089182       0.34334331
O        2.79736471       0.62670475       1.13556421        0       5.70720304       5.00903058       0.21307627
H        0.89998060      -3.19638634       1.03570819        0      -0.67642473       3.11525641       0.03941338
H       -1.19878638      -0.96512020       1.35657227        0       1.88936875      -0.16863135      -0.72933371
C       -0.41216639       2.13632989      -4.04738474        1      -3.14708988       0.59843720       1.80997822
O       -1.54790235       1.62400174      -3.95587182        1       3.32844007       0.80114401      -0.39518079
O        0.27796960       2.39783573      -5.12207270        1       0.24582808      -0.63372479      -0.45021659
O        0.20427561       2.77221179      -3.01263165        1      -0.55445449       0.38039753      -0.62628481
C       -0.13921839       1.75725079      -6.37238789        1       0.40026270       2.50387288       0.55935975
C       -0.32927039       2.62372971      -1.66351080        1       0.87927928      -2.14987177      -0.42694485
C        1.19375861       1.73544383      -7.19138670        1      -1.73376176      -0.41926935      -0.05479102
H       -0.50711936       0.80607575      -6.08773184        1      -0.21874884      -1.20366018      -0.18105991
H       -1.02609134       2.38092375      -6.65819073        1       0.82676996      -0.42507448      -0.65222798
C        0.74890864       3.15720272      -0.68642378        1       0.17445652       3.58360630      -1.53499123
H       -1.45247042       2.74032784      -1.61172080        1       1.35491139       1.12038815       0.17947498
H       -0.24573039       1.54906976      -1.64900982        1      -0.27039234      -1.16503286       0.97950985
H        0.41137761       3.41774178       0.31939122        1      -0.30254495      -0.12031392      -0.47890557
H        1.72883761       2.71294188      -0.58148378        1      -0.49883852      -1.30621479      -0.25859620
H        1.13165760       4.14930296      -1.22746277        1      -1.10757339      -1.28978999       1.23697915
H        0.91526759       1.30510473      -8.22597790        1       1.08830325       0.58340279       1.74292241
H        1.72747660       2.70354986      -7.21263790        1      -0.87035522      -0.40335458      -0.36469051
H        1.76877558       1.13842678      -6.47950077        1       0.42318497      -0.48092337      -1.05314617
C       -1.03568435      -1.24044025       5.12450600        2      -3.08918146      -3.96404773       0.76550676
O       -0.75859940      -1.73307025       3.81813025        2      -1.56989356       0.20345241       3.88399636
C       -1.41239440      -2.91287422       3.89505816        2       0.47170843      -1.59626877      -1.63305767
O       -2.24688435      -3.16512823       4.90641403        2       1.15986473       2.46861381       1.63138105
C       -1.91975343      -2.14320517       5.82747746        2       2.46453503       2.33005444      -4.11114414
O       -1.15433335      -3.77282715       3.12227416        2      -0.03643880      -0.85326247      -1.39730852
H       -2.43766642      -2.04236126       6.73720312        2      -0.16662766      -0.06673769       0.48316369
H       -0.57101941      -0.39238423       5.46437836        2       0.78221179       1.47782039       0.45147812
32
Properties=species:S:1:pos:R:3:molID:I:1:forces:R:3 Nmols=4 Comp=VC(4) energy=-2136.4041800166583 pbc="F F F"
C       -0.18384601       2.39934206       2.87055969        0      -0.20866924       1.15475181       0.87443625
C       -1.00316405       3.14677811       2.14002562        0      -0.88973951       0.53032765       0.04134000
O       -1.17628205       4.41016912       2.71089673        0       1.66528908      -1.70902718      -1.21332336
C       -0.12086101       4.43738317       3.60548162        0      -1.44486925       2.96740959       1.55283294
O        0.24541499       5.47160482       4.09773779        0      -0.12938483      -1.38026865      -0.42314761
O        0.23488699       3.22132993       3.93537164        0       1.11662646      -1.55692109      -0.93306080
H        0.13492399       1.39397001       2.76868176        0       0.26054922      -0.19800360       0.27794829
H       -1.47591197       2.87969899       1.22259974        0      -0.41145673       0.37330237      -0.04175527
C        0.02037599       0.48658204      -1.62798727        1       0.66796681       0.09728982       0.28845250
C       -0.25892201       1.33652198      -0.61137629        1      -0.51692668      -0.39556796      -0.10196101
O       -0.10946101       2.66759610      -1.08563530        1      -0.57873698      -1.73386571       0.79803853
C        0.27459899       2.57405710      -2.36491919        1       1.05702958      -0.24514543      -0.76471239
O        0.59739196       3.44374299      -3.10663629        1      -0.52599509      -0.20680169       0.56832579
O        0.39864299       1.23445106      -2.70981741        1      -0.36302151      -0.21476786       0.42634687
H        0.15245000      -0.63944596      -1.63558424        1      -0.24067469       2.22819356      -0.41117143
H       -0.70971900       1.02950001       0.36996269        1       0.77259734       0.99547708      -1.25251953
C       -1.53499103      -2.18794107      -0.83939826        2       3.17924332      -1.45417849      -1.09515918
C       -2.65085101      -1.52059495      -0.90405232        2       0.13601818       2.85261120       0.96275075
O       -3.64232898      -2.19272709      -1.38567626        2      -1.50738027      -1.72309855      -1.01667323
C       -3.10100198      -3.38501406      -1.74439335        2      -0.34183237      -2.11986407      -0.66809672
O       -3.65989709      -4.32537079      -2.21766233        2      -0.36362428       0.61527133       0.05475363
O       -1.79078305      -3.43165493      -1.46657932        2       0.36946346       1.63896062       1.13370673
H       -0.46613801      -1.84036899      -0.73343331        2      -1.77976340      -1.16536135       0.45076825
H       -2.85133791      -0.50869095      -0.68429327        2      -0.11011603       0.74971967       0.50718757
C        2.04542804      -1.78058195       0.30450469        3      -0.68459521       0.66601799      -0.68569244
C        2.20972991      -2.20262599      -0.92132527        3       1.25300562      -1.07963414      -2.66064023
O        3.13455200      -3.29267287      -0.90597731        3      -2.04530623       1.48916720      -1.11365573
C        3.29816103      -3.54355001       0.35827771        3       1.40805751      -0.61563738       1.18968984
O        3.92212296      -4.43347120       0.83328068        3      -0.01765142      -0.12578286       0.09583423
O        2.71428394      -2.55500293       1.09104776        3       1.03645403      -1.54039919       3.05917890
H        1.47149301      -1.03928494       0.75463468        3      -0.70504960       1.04058529       0.34733933
H        1.93026602      -1.88170993      -1.89532030        3      -0.05750729       0.06524001      -0.24736146
23
Properties=species:S:1:pos:R:3:molID:I:1:forces:R:3 Nmols=2 Comp=EMC(1):VC(1) energy=-1206.9998752751474 pbc="F F F"
C       -0.55368245       2.82042670       1.12392294        0      -4.47755225       1.74242977       1.32761733
O        0.61067361       2.90822387       1.08283591        0       1.75733493      -1.67927471      -0.51414126
O       -1.56757545       1.90141177       1.18038595        0       1.83944421      -0.66448625       0.09205713
O       -1.31567645       3.95195580       1.31354690        0      -0.38404170      -0.05493171       0.01164530
C       -1.15945637       0.53953975       1.10869789        0       2.99503018      -0.67925698      -1.70130803
C       -0.60942441       5.19708776       1.24397397        0      -2.00110853       0.03771645       0.84704400
C       -2.15627742      -0.55227125       1.12845790        0      -0.41299984      -1.23689981       3.02909130
H       -0.63897443       0.42297876       0.11855894        0      -0.07912512       0.24496533       0.25003338
H       -0.30251741       0.28352877       1.83223498        0      -1.26683011       0.62133190      -0.34368214
H       -0.11624742       5.35216379       2.20685101        0      -0.07168504       0.31779477      -0.06080943
H        0.10057957       4.94698191       0.51334596        0       1.17563741       1.00562946      -1.25719497
H       -1.82345545      -1.57423818       1.06068397        0       1.85350612      -0.27927205       0.12427977
H       -2.64350533      -0.58475226       2.09431791        0      -0.21038436       0.37551738       0.79287102
H       -2.94465542      -0.71663326       0.51023495        0      -2.27823701       1.40274708      -2.70602767
H       -1.42349541       5.98950672       1.03843296        0       1.58267404      -1.16286455       0.09377495
C       -0.31447041      -3.58338714      -1.46412504        1       3.69369071      -2.53517359      -3.89922736
O        0.55831057      -2.43077517      -2.18514109        1      -6.10248614      -1.95529775       0.90017556
C        1.54243159      -2.25624514      -1.45400703        1       5.37845547      -0.49120760       0.79128135
O        1.86569357      -3.50974727      -0.79744804        1      -2.52131956      -2.07806797      -0.69759890
C        0.73536760      -4.48398829      -1.06666505        1       0.01912918       8.41230667       0.08784705
O        2.37544250      -1.38256919      -1.48509705        1      -1.62545190      -1.10643448       0.50700226
H        0.76844460      -5.31061125      -0.46970305        1       0.06924582      -1.65781178       0.98043484
H       -1.12763941      -4.02895403      -2.15072918        1       1.06707350       1.42054042       1.34483452
21
Properties=species:S:1:pos:R:3:molID:I:1:forces:R:3 Nmols=2 Comp=PC(1):VC(1) energy=-1181.9205781015635 pbc="F F F"
C       -2.77607775      -0.20562433      -1.53955948        0       2.09656015       1.38223798      -3.82947882
O       -2.36679482      -0.44564033      -0.26708949        0       0.39186999       0.28930407       1.70896593
C       -3.39124370      -0.18280132       0.55434549        0      -0.64781281      -4.14451464       3.32965639
O       -4.47453070       0.09359468      -0.11637549        0      -0.63870700       2.01220535      -1.39881942
C       -4.05466175       0.61176068      -1.47582543        0      -0.29221381      -0.33187973       3.09418480
C       -1.49644876       0.57169569      -2.21235037        0      -4.80087300      -0.43387980      -1.14817436
H       -2.93682575      -1.11523938      -2.09851551        0      -0.12214155      -0.70029814      -0.08844005
O       -3.44998264      -0.63177931       1.70508349        0       0.61192026       2.02328451      -2.40720925
H       -3.87626767       1.68107963      -1.29247153        0      -0.00732000      -0.06068708      -0.39659253
H       -4.94257879       0.44917867      -2.05512452        0       0.19102144      -0.27152949      -0.70504734
H       -1.58334780       1.45300567      -1.67489552        0       1.12686735       1.63749545       1.05986733
H       -0.69514275      -0.06060532      -2.13386655        0       1.86011592      -0.84759149       0.29913568
H       -1.74266374       0.85064769      -3.25860858        0       0.27576722      -0.54407111       0.47990652
C        3.14170218       0.07860968       1.90398347        1      -5.05318619      -1.11829475       2.13295072
O        4.31518841       0.20511667       1.47918546        1       4.16969356       0.20890254      -1.62505531
C        4.23197222       0.08495168       0.09893551        1       6.34639854      -0.37439730      -2.02162354
O        3.03761721      -0.08545133      -0.25864148        1      -2.87168159       0.08201705      -0.61333695
C        2.26470423      -0.09372932       0.89008349        1      -1.02656817       0.19667635      -0.23707421
O        5.23632526       0.02389467      -0.65116549        1      -3.17453295       0.54534208       2.60274601
H        1.16768730      -0.07575033       0.74390954        1       1.19244283      -0.25661555       0.34989700
H        2.90786624      -0.14447433       2.95684457        1       0.37237981       0.70629370      -0.58645861
35
Properties=species:S:1:pos:R:3:molID:I:1:forces:R:3 Nmols=3 Comp=DMC(1):EMC(1):VC(1) energy=-1799.3809465922143 pbc="F F F"
C        0.77743095      -4.03600359       0.27467319        0       1.79342948      -2.88366824       0.18627445
O        1.28903091      -5.16320753       0.95929217        0       0.13724350       0.68551908      -0.45873995
C        0.75651294      -5.16368055       2.18931627        0       0.99179640      -1.65989880       2.60131051
O       -0.16066407      -4.14499569       2.23753524        0       0.21102209      -0.99742384       0.43904177
C       -0.13006607      -3.53275061       1.02234018        0      -2.91620027       3.24061612       2.90069900
O        1.10245395      -5.90156651       3.12484407        0      -1.44191344       2.40899398      -3.13121201
H       -0.73748505      -2.59803772       1.09414721        0       0.58930485      -1.07827543      -0.69242843
H        1.16478693      -3.86064363      -0.65364784        0       0.65137459       0.30468252      -1.84816941
C        2.39473701      -0.13567971      -2.00385976        1      -3.04084864       1.33993895       0.75141106
O        2.02117705       0.93080831      -1.53105283        1       0.80770234      -1.73238209      -0.72529189
O        1.56575596      -1.17551470      -2.29425788        1      -0.70090961       0.56678297       0.40752783
O        3.56410599      -0.51147169      -2.36361885        1       0.55934346      -1.24482885      -0.75648068
C        0.08413994      -1.07812166      -2.07079673        1       2.69800709       1.65035551      -0.95503312
C        4.63801384       0.32011929      -2.19520688        1       0.91137737       2.77786302       0.54884153
H       -0.02724706      -1.10631275      -0.99866283        1      -0.54190407       0.01659387       0.06310374
H       -0.23066705      -0.09215672      -2.55662274        1       0.04593942      -1.42204251       0.75732432
H       -0.13875505      -1.96449971      -2.61947680        1      -1.04885301      -0.31007984      -0.06472920
H        5.52925682      -0.25668570      -2.45086575        1      -0.15313007       0.42119029      -0.03109454
H        4.53675508       1.33490324      -2.72569370        1       0.18369659      -1.52270204      -0.23049847
H        4.66562796       0.72269827      -1.16748881        1       0.28422715      -0.63030379       0.19436775
C       -2.15529704       3.67527223       0.67875421        2      -1.50182305      -0.82279040      -0.39815909
O       -2.19263101       3.17264032       1.81260824        2       0.79785062       1.62221589      -3.82430638
O       -2.98643708       4.62139940       0.16492219        2      -0.33275364       0.70743773       2.35928504
O       -1.49599302       3.30005240      -0.51957279        2      -0.68980197      -1.14389894       2.82638745
C       -4.00357485       5.33675241       1.03247321        2       0.73091917       0.43097212      -1.46166962
C       -0.48296008       2.28641725      -0.33284181        2       0.14564885       1.70152986       0.52727091
C       -4.74070215       6.38486719       0.09098719        2      -1.15203453       0.71408306       1.88037647
H       -4.58521795       4.56906319       1.51632619        2      -0.89653916      -0.43116717      -0.58354512
H       -3.61696410       5.83598614       1.95198119        2       0.70193590       0.11909395      -1.05800879
H        0.13538894       2.76807332       0.40759417        2       1.18533222      -0.10795648      -0.01856091
H       -0.68323606       1.33709824       0.08318919        2      -1.48853480      -0.90068131       0.55934159
H       -5.36767626       7.06059551       0.80738819        2       0.30970199      -1.60961083      -0.96699187
H       -4.12336302       7.20362139      -0.28329381        2       0.68620326      -0.89700341      -0.33224345
H       -5.39347601       5.98927641      -0.74339181        2       0.97395544       0.16440520       1.28314202
H       -0.01203106       2.06862926      -1.25954878        2       0.50923446       0.52243985      -0.74854253
18
Properties=species:S:1:pos:R:3:molID:I:1:forces:R:3 Nmols=1 Comp=DEC(1) energy=-760.0630854526735 pbc="F F F"
C        0.21545677       0.27857527       0.78011549        0       2.93824897       2.11062910      -0.03395733
O        1.21367276       0.73387229       1.36984849        0      -3.60015076      -0.35040713      -0.94070516
O        0.36155477      -0.84742874       0.10499748        0       0.55418871      -1.20060122      -2.33552351
O       -0.96275026       0.95702928       0.50959450        0       3.14146420       1.94504344       4.34642597
C        1.44331980      -0.93667674      -0.97146153        0       0.86310554      -1.11196773       0.05744116
C       -1.85403621       0.46545729      -0.32444653        0      -2.16946531      -2.33251761      -4.08006528
C        2.63966966      -1.96566975      -0.47162151        0      -2.52217236       1.90154586      -0.11204961
H        0.93263578      -1.43869877      -1.92214453        0       0.80506135       1.08959439       1.97069567
H        1.84146082       0.10294128      -1.22501552        0      -0.59756358      -1.34527496       0.47406458
C       -3.10192323       1.32403529      -0.93014354        0       3.25787860       0.81915472      -1.91037938
H       -1.13933623       0.15264128      -1.19133651        0      -1.93754497      -0.19448591       0.17624041
H       -2.34241629      -0.45918372       0.11588048        0       0.36497042       0.59323285      -0.49847761
H       -2.68730831       2.20029140      -1.67216051        0      -0.58761450      -1.87813798       1.74308570
H       -3.57766914       0.60869330      -1.68711853        0       0.02950716       1.12307114       1.83845764
H       -3.60041618       1.88782930      -0.14118752        0      -0.43505936      -0.88539007      -0.40182320
H        3.46203876      -2.13866377      -1.12403250        0      -0.33385729      -0.40103628      -1.35865642
H        3.18801069      -1.56574667       0.34892547        0      -0.32984421       0.59817837       1.14062162
H        2.03143668      -2.80301762      -0.16429052        0       0.55884738      -0.48063099      -0.07539521
44
Properties=species:S:1:pos:R:3:molID:I:1:forces:R:3 Nmols=3 Comp=DEC(2):VC(1) energy=-2057.6756352349207 pbc="F F F"
C        0.30511126       0.00994164      -3.06306362        0      -0.33502910       1.98566447      -1.10347141
O        0.63089526       0.82307667      -2.22752953        0      -0.19896119      -1.28773579      -0.87739320
O       -0.00509874      -1.26174140      -2.95426345        0       0.16609185      -0.50128994       2.01221454
O        0.08915926       0.25015363      -4.38722277        0      -0.03686494       1.74656705      -0.84013060
C        0.16192526      -1.78970039      -1.59430158        0       1.03695891       0.68891473      -0.29437321
C        0.30054528       1.59053469      -5.00813961        0       0.77548538       0.79186240      -0.17572569
C       -0.06891674      -3.25976038      -1.62754750        0      -1.25853351      -0.98085250       0.33921612
H        1.23337328      -1.58371139      -1.28653550        0      -1.01510138       0.01391924      -0.18805325
H       -0.52705675      -1.30971134      -0.86590254        0       0.32662464       0.04409435      -0.62155813
C       -0.71971077       2.73079062      -4.76370478        0      -0.13616994      -0.99568097       1.40330509