1
Lattice="20.0 0.0 0.0 0.0 20.0 0.0 0.0 0.0 20.0" Properties=species:S:1:pos:R:3:forces:R:3 config_type=IsolatedAtom energy=-10.707211383396714 pbc="F F F"
H        0.00000000       0.00000000       0.00000000      -0.00000000      -0.00000000      -0.00000000
1
Lattice="20.0 0.0 0.0 0.0 20.0 0.0 0.0 0.0 20.0" Properties=species:S:1:pos:R:3:forces:R:3 config_type=IsolatedAtom energy=-48.847445262804705 pbc="F F F"
C        0.00000000       0.00000000       0.00000000      -0.00000000      -0.00000000      -0.00000000
1
Lattice="20.0 0.0 0.0 0.0 20.0 0.0 0.0 0.0 20.0" Properties=species:S:1:pos:R:3:forces:R:3 config_type=IsolatedAtom energy=-102.57117256025786 pbc="F F F"
O        0.00000000       0.00000000       0.00000000      -0.00000000      -0.00000000      -0.00000000
28
Properties=species:S:1:pos:R:3:molID:I:1:forces:R:3 Nmols=2 Comp=DEC(1):EC(1) energy=-1322.2814543960203 pbc="F F F"
C       -1.30470300      -2.67494059       3.02374005        0       4.33684571      -1.08007986      -1.44781847
O       -1.54705799      -1.61475563       3.49474692        0       0.08805575      -0.25928311       1.98521108
O       -1.80046797      -3.04051566       1.83553100        0       1.96905568      -2.54387659       2.68785298
O       -0.07773995      -3.43707156       3.15065908        0      -3.40069850       0.80420766      -1.06819739
C       -2.60078788      -2.07503462       1.50148296        0      -5.63125966       3.20248626      -3.98016125
C        0.57909304      -3.66833568       4.32119274        0      -0.07143609       1.08487283       3.60411143
C       -3.15289688      -2.46326256       0.10091998        0       1.81695867      -2.16391676       0.78483060
H       -3.52118802      -1.87820160       2.07275200        0       0.12979967      -0.58709963       0.87501587
H       -2.16160798      -1.09255958       1.47580802        0       0.77568514       0.60542321      -0.28537331
C        1.93264806      -4.32521868       3.94742990        0      -2.49220595      -0.69542032      -1.27722838
H        0.80197006      -2.65975547       4.86962080        0       0.04031388      -1.03958343      -0.88856214
H       -0.12344095      -4.12696457       5.13245916        0       1.09966945      -0.25807160      -1.37153386
H        2.57357717      -4.35302544       4.78506279        0       0.62235260      -0.26499327       0.46029449
H        1.77954507      -5.32373047       3.38904309        0       0.26367397       1.41338688       1.25615346
H        2.17894816      -3.59643960       3.20280504        0       1.18445873       0.05820405      -0.43668758
H       -3.92165899      -2.04777169      -0.45130602        0      -0.85355277       2.15767394      -0.51407183
H       -2.23413396      -2.62649369      -0.44227701        0      -0.01331111       0.22665093      -0.87625413
H       -3.57350898      -3.45946670       0.19301698        0       0.13580464      -0.65995894       0.49041244
C        0.85385603       2.48883343      -4.24777079        1       5.33240964      -0.17140649      -0.80417984
O        1.86168802       3.65560937      -4.53447819        1      -1.00149495      -1.12622668       0.54727977
C        1.69795799       4.58276939      -3.60660005        1       0.42224872       3.41191288       0.32098344
O        0.72279108       4.17001343      -2.70819211        1       1.62631966       0.12826844       0.27753214
C        0.61550504       2.74297953      -2.76141310        1      -0.71393758       1.05004565      -1.14909681
H        0.31929404       2.52238441      -5.19220924        1      -1.15671799       0.09615372       0.91030749
H        1.56574810       1.58702838      -4.34013414        1      -0.98230530       0.87309351      -0.04605172
O        2.21938610       5.71446562      -3.58021712        1      -1.79001581      -4.29412903      -0.07762955
H       -0.42480797       2.61078048      -2.62359810        1      -1.13113340      -0.69431250       0.95418380
H        1.28531110       2.18865848      -2.03804207        1      -0.60558280       0.72597823      -0.93132272
32
Properties=species:S:1:pos:R:3:molID:I:1:forces:R:3 Nmols=4 Comp=VC(4) energy=-2137.5875157224013 pbc="F F F"
C        3.32275176      -1.71558309      -2.53769994        0       0.35869625      -0.35289952       0.25297443
C        2.34937167      -0.83702511      -2.76760983        0      -1.03688639      -0.33161565       0.98776882
O        1.29855669      -1.04843116      -1.83033192        0       0.82660976       0.57225637      -1.10725304
C        1.70824969      -2.06147504      -1.06178999        0      -0.19388719      -1.09950886       0.95045997
O        1.16531074      -2.64989805      -0.17677294        0      -0.84463398       0.92927217      -0.21080572
O        2.90480280      -2.46121311      -1.44268095        0       2.30282199      -0.23457903      -1.40288778
H        4.30320978      -1.90507317      -3.05379987        0      -1.40970535       0.14682756       0.93811290
H        2.19898367      -0.06960510      -3.47213697        0      -0.10776924       0.41675803      -0.39548787
C        2.73411870       2.18872190      -0.48650792        1      -0.58828295       0.87142797      -1.76269023
C        3.45995665       2.80913401       0.41576707        1       0.71407470       1.13652411       2.02955743
O        3.69533181       1.95741594       1.49574912        1      -0.69604787      -1.05407240      -1.98024060
C        3.14709663       0.76244992       1.10132909        1      -0.79373146      -2.74640695       2.63293694
O        3.07861280      -0.25524712       1.81974804        1       0.38044871       3.78431804      -3.13803539
O        2.53297973       0.91508591      -0.16961993        1       0.76914556      -1.14695325       2.08962391
H        2.29369664       2.56164479      -1.41042888        1       0.36341041      -0.27113136       0.37787168
H        3.78077579       3.83639193       0.57216305        1      -0.11648324      -0.53464012      -0.26820603
C       -1.88072026      -1.68233812       0.60239208        2      -0.60722709       0.16525190      -1.15317541
C       -2.64982629      -1.34119809      -0.44556493        2       0.84241810       0.47810476      -0.71899532
O       -3.80981421      -2.05840302      -0.40237293        2       0.45726429       0.02153518      -0.42609679
C       -3.72877717      -2.86592007       0.68102509        2      -1.18797763       0.72575187       0.71387412
O       -4.67678308      -3.46287918       1.11424005        2       1.33004717      -0.07370221      -0.33608187
O       -2.52416825      -2.63225102       1.27509606        2      -0.89381735      -1.27226144       1.14789771
H       -0.93575728      -1.38812315       0.95645505        2       0.67450629       0.13396692       0.15662143
H       -2.38305831      -0.73338610      -1.31707489        2      -0.66021133      -0.36198812       0.61751253
C       -0.81957132       2.86278296      -0.64558095        3      -1.95407291      -1.20408037       1.84021342
C       -1.18446434       1.64689386      -0.19626193        3      -0.36457910      -0.29054785      -0.18358537
O       -2.26188636       1.76920891       0.68278104        3       0.94464993       0.36587872      -0.41527113
C       -2.50929928       3.12145400       0.85193110        3       1.95421824      -1.49191418      -1.49684095
O       -3.24948525       3.62204194       1.59899211        3      -0.89955522       0.50749331       0.61173638
O       -1.63557827       3.74594188       0.00162907        3      -0.33729726       1.33407490       0.19187385
H       -0.16898729       3.27416778      -1.33542991        3       0.93998965       0.32751752      -0.81225626
H       -0.84378427       0.64557892      -0.44564694        3      -0.16613550       0.54934199       0.26887424
54
Properties=species:S:1:pos:R:3:molID:I:1:forces:R:3 Nmols=3 Comp=DEC(3) energy=-2286.768792460573 pbc="F F F"
C       -1.60960352       2.02601004      -2.37713432        0      -2.17177288      -1.56386065       2.08808507
O       -3.02942944       2.37464905      -2.36168218        0       0.90715905       0.40057913      -0.49150059
C       -3.79677463       1.86777616      -3.30007839        0      -0.79117013      -2.52935519      -1.39357737
O       -3.58227444       0.93446213      -4.08902836        0       0.36619544       2.25774299       1.77882365
O       -5.01767063       2.40316820      -3.18907928        0      -0.10617328      -0.38931919      -0.51853655
C       -6.03052855       1.84377718      -4.05105448        0      -0.69300379       0.13710603       0.17129811
C       -1.11732256       2.11151624      -0.89237428        0      -0.89239351      -1.78578274      -1.99957703
H       -1.60291457       1.01958716      -2.82548738        0       0.47267268       0.10176799       0.30897680
H       -1.05774248       2.68621707      -2.93745136        0       0.96597930       1.63817194      -1.54143394
C       -7.15845966       2.87342119      -4.10481119        0       0.67795355       2.04052745      -0.33558939
H       -5.68976641       1.71896410      -5.10184336        0       0.27526476      -0.03597749       0.67116750
H       -6.38214731       0.83773315      -3.69849324        0       0.42618239       0.78081980       0.04632932
H       -1.25676048       3.11568117      -0.56068826        0      -0.02823323       0.18792404       0.46788298
H       -1.66993654       1.31929612      -0.35236728        0       0.33934497       0.88138277       0.14947230
H       -0.09925453       1.80633414      -1.01884031        0       0.70913495       0.13237368       0.64800495
H       -7.55870152       3.32321906      -3.17918730        0       0.68400636      -0.76224567       0.06829246
H       -6.68489742       3.80052614      -4.63658142        0      -1.21091781      -1.59536873       0.47576838
H       -8.02570915       2.45786405      -4.59319448        0       0.07334122       0.10182445      -0.59041242
C       -2.72652245      -5.39677382       5.22352266        1      -1.09032570       0.08286373       0.74972792
O       -3.29920363      -4.69788599       4.08162260        1       0.83654317      -1.30351609       0.32683122
C       -2.94970465      -5.29872179       2.93463874        1      -0.79738010       1.16330215       0.73807821
O       -2.34813857      -6.30704498       2.85435462        1       1.16681592      -1.72175774      -0.27166117
O       -3.40699959      -4.58294964       1.94954777        1       0.37223223       0.64135108      -1.74827512
C       -3.00006843      -4.98493671       0.62017471        1      -0.79418149      -0.43469813      -0.79910301
C       -1.47729254      -4.66373587       5.67852068        1       0.55126145      -1.35566687       0.66977817
H       -3.54732442      -5.32273102       5.93990183        1       0.06960287      -0.00688422       0.34582450
H       -2.51684761      -6.49436283       5.06563377        1      -0.27371849       1.14258868      -0.32649466
C       -4.25017643      -5.49717903      -0.13221028        1       0.96675646      -1.34797006      -0.08593866
H       -2.61875653      -4.13294268       0.03826372        1      -0.14864472       0.21922773       0.60892831
H       -2.19876242      -5.74642801       0.58660769        1      -0.41145318       0.16244318       0.61664659
H       -0.72708452      -5.03983974       5.00115395        1       0.75833392      -0.00874047       0.05462614
H       -1.55952656      -3.62117386       5.47416687        1      -0.21482364       0.70207129       0.42111471
H       -1.17794156      -4.91837168       6.75282049        1      -0.56391839       0.52442194      -1.54598437
H       -3.97658849      -5.71961975      -1.16013825        1       0.15964821       0.11634162      -0.14391464
H       -4.64781952      -6.46026564       0.25389373        1       0.24160731       0.82254696       0.18451738
H       -4.98803139      -4.74274874      -0.15086527        1      -0.82803630       0.60434269       0.20301352
C        8.36589909       3.01109624      -1.50170922        2      -1.39300623       1.39105021       1.65492615
O        7.25047636       3.70277810      -0.73943925        2       1.70606892      -0.73145097      -0.60613601
C        7.12766838       3.23884726       0.49266371        2       1.56256452      -1.92885551      -0.03327138
O        7.86455870       2.35170913       0.94471973        2      -1.90557757       2.02150892      -0.41972872
O        6.08286047       3.82884717       1.03454769        2      -0.08374717      -1.01690978       1.47796699
C        5.54172134       3.12811804       2.18709779        2      -1.32139263      -0.23097170      -0.20491196
C        8.27025318       3.56835008      -2.85638022        2       0.48826765       1.82887018      -2.02516544
H        9.31131744       3.17977118      -0.96704030        2      -0.24696276       0.17801882      -0.19945765
H        8.12266064       1.97381318      -1.44112623        2      -0.05197949      -0.85342222      -0.09924058
C        4.30279541       2.26368618       1.68969870        2       2.24499654       0.31701880       0.55685400
H        6.27709055       2.51761913       2.74626684        2      -0.11858596       0.15107456      -0.76341376
H        5.21453857       3.91509223       2.86922574        2      -0.20385362       0.03948739      -0.06173767
H        9.07603645       3.16321802      -3.46043921        2       0.12253378      -0.23766099      -0.14875697
H        7.31716251       3.29235220      -3.37392235        2       0.72871169       0.56741158       0.65670591
H        8.47819805       4.72344017      -2.89781332        2      -0.83157586      -2.02962794       0.28456269
H        3.80721235       1.72707319       2.46472383        2      -0.11884840      -0.10678365       0.67245827
H        3.63414049       2.83964014       1.14170873        2      -1.26175522       1.49695595      -0.44418499
H        4.63779736       1.57180011       0.95180470        2       0.68025225      -0.85629173      -0.29865815
25
Properties=species:S:1:pos:R:3:molID:I:1:forces:R:3 Nmols=2 Comp=DMC(1):PC(1) energy=-1236.5021316470422 pbc="F F F"
C        0.26867327       0.82617706       3.56875515        0       3.82464782      -3.40785760       0.30931642
O        1.20407522       0.00694804       3.88655519        0      -3.03041035       2.96969720      -0.21791918
O       -0.15151873       1.87850702       4.22450924        0       0.76643887      -0.52508945       1.59977162
O       -0.31146672       0.68600601       2.41511226        0      -1.24020962       1.34515699      -1.06251508
C        0.60974330       2.19796705       5.46754503        0      -1.58591991       0.58217008      -0.40315895
C       -0.04313473      -0.40996495       1.56119323        0       3.33270373      -1.34163584       2.37498918
H        0.14938527       3.26913095       5.55805445        0       2.16312502      -1.20745342      -0.11033962
H        0.17610027       1.74879205       6.42114830        0       0.52137367      -0.34032320      -1.42013037
H        1.69252932       1.82167304       5.26738930        0      -1.71931557       1.37761923       0.62327258
H        0.40677726      -1.22674096       2.54566431        0      -1.95717729       0.84063659      -2.79101744
H       -0.83051270      -0.39024797       0.79638022        0       0.28675235      -0.85950328       0.83094356
H        0.99454325      -0.35514596       1.06957626        0      -1.35631782       0.58791031       0.24760998
C        0.35005027      -1.13393593      -4.11716795        1       1.40875769       0.05332859       4.53921083
O       -0.36146173      -0.00900396      -3.62346482        1       0.40845957       0.96718312      -1.38252968
C       -0.43406373      -0.00573496      -2.32576585        1      -2.39153077      -0.67729686       1.52096330
O       -0.12481073      -1.25843096      -1.85389078        1      -0.32683111       0.04648619       0.09260784
C        0.18210126      -2.15063000      -2.94695377        1       1.08437149       2.38096486       0.99843557
C       -0.20489474      -1.62076795      -5.28585482        1      -4.08374878       0.39673437      -5.14127758
H        1.38762224      -0.85716498      -4.10732269        1       0.88180340       0.27570738      -0.54188220
O       -1.00219071       0.83084202      -1.67416680        1       1.34378975      -0.72979078      -0.41662507
H       -0.47225174      -2.95533895      -3.10375786        1      -1.57208641      -0.56152919      -0.07978737
H        1.09618127      -2.57057095      -2.63555884        1       1.46494953      -0.73263930       0.10002942
H       -1.27209377      -1.91724491      -5.05907202        1       1.00061408      -0.40563617      -0.24610300
H       -0.47170472      -0.67543495      -5.93360281        1       1.08684590      -1.77722184       0.32321449
H        0.33095628      -2.42494202      -5.81810379        1      -0.31108525       0.74238203       0.25292077
32
Properties=species:S:1:pos:R:3:molID:I:1:forces:R:3 Nmols=4 Comp=VC(4) energy=-2135.7898507912123 pbc="F F F"
C        0.04748043       2.08405590      -0.63734096        0      -1.19165249      -1.70172065      -3.37896922
C       -0.01351656       1.25032675       0.38708904        0       1.39374761      -0.45211833       1.62769589
O        0.45574543       2.08090878       1.46652305        0      -2.07125440      -2.76216025       0.18468627
C        0.34810144       3.28371382       1.06209207        0       1.42000722       2.28697449      -0.16239735
O        0.31482345       4.27846575       1.70761502        0       0.06211284       0.30067189       0.24260695
O        0.38435945       3.30825973      -0.32550597        0      -0.65511658       1.30818431       0.62190542
H       -0.31349957       1.96736085      -1.68393493        0       0.57494268      -0.14998780       0.89721353
H       -0.06401856       0.15411380       0.56315106        0      -0.01132354       1.47480960      -0.24623027
C       -1.66047359       0.45086882      -4.46348810        1       1.15698450      -0.68209120      -1.38071571
C       -1.95249557      -0.00351120      -3.26631999        1       0.53915447       0.39500783       4.90688657
O       -3.32736254       0.03280080      -3.05590296        1       0.08115854      -0.19973904      -1.14717697
C       -3.95656347       0.35726079      -4.27977991        1       2.34831070       0.10328254       1.19336168
O       -5.12434864       0.51347482      -4.42274284        1       1.43360915      -0.28171817      -0.45720860
O       -2.84393454       0.53240478      -5.15042973        1      -1.46198702       0.57111875      -0.38947172
H       -0.61161155       0.49457780      -4.92407894        1      -2.19803435       0.11783663       0.33711374
H       -1.28075457      -0.07140619      -2.21488690        1      -1.89810701      -0.06567199      -3.06007003
C       -1.36415553      -3.54643011       2.67981315        2       0.07752522      -1.69729314       1.59134086
C       -1.68327451      -3.39101624       1.41687107        2      -0.37434332      -0.11997589      -1.53273703
O       -0.75906658      -2.62225413       0.81276006        2       1.53312061       1.21779583       0.60761383
C        0.20147343      -2.31432629       1.82862401        2      -1.86385552      -1.41439964      -1.21527103
O        1.17183244      -1.68151414       1.73367405        2       1.64155782       1.38547198      -0.90263532
O       -0.16305557      -2.95984221       2.89066911        2      -0.13301145       0.13667160       1.61092412
H       -1.63845158      -4.20912743       3.49091506        2      -0.43817366       0.38206614      -0.35443581
H       -2.38043761      -3.77047610       0.70744205        2      -0.61912608      -0.08661556       0.27850011
C        3.82544732      -1.25035715       0.45330003        3      -1.46641799       2.45013626      -2.49693471
C        4.28128433      -1.40887523       1.63822508        3       1.91662800      -1.86107234       4.90474283
O        3.67020941      -0.63445717       2.59636998        3       0.73784214       0.03319461      -2.20547677
C        2.97386932       0.25167981       1.85710406        3      -1.18519799      -2.36136045      -0.66763722
O        2.36070538       1.07337880       2.40682602        3      -0.67286166       2.04116491      -0.06397318
O        2.88301539      -0.17847720       0.48105404        3       2.05974141      -0.03120684       2.21266583
H        4.35920334      -1.43950725      -0.44389796        3      -0.51182400      -0.46074791      -0.63902809
H        4.96792746      -2.08742714       2.16061401        3      -0.22415584       0.12349185      -0.91688856
36
Properties=species:S:1:pos:R:3:molID:I:1:forces:R:3 Nmols=2 Comp=DEC(2) energy=-1523.0759023731375 pbc="F F F"
C        1.45405948      -3.50115395       2.78961325        0       2.38475698      -1.20392580      -2.78326874
O        1.30956447      -2.44254088       3.24594522        0      -0.76498490       2.74615111       3.00055956
O        0.95193148      -3.79787588       1.59199727        0      -1.36065958       0.35335623      -0.37463284
O        2.45377541      -4.35969877       2.97420526        0      -0.33562380      -0.90326952      -0.60421832
C       -0.01088752      -2.81054688       1.11468518        0      -0.01884581       1.62765280       1.73129434
C        3.25747848      -4.48589897       4.12961102        0       0.08380091      -0.98242715      -0.78382731
C       -0.44826752      -3.30812502      -0.18836780        0       0.96429432      -2.55399507      -1.58483172
H       -0.88827354      -2.77275586       1.85625517        0       1.15372060       0.09781335      -0.74726506
H        0.42641348      -1.69912398       1.03107226        0      -0.46697054      -2.25617342       0.42463656
C        4.61976242      -5.10977602       3.73240924        0      -2.09729893       0.63580035       0.52037332
H        3.40542555      -3.57590199       4.57776117        0       0.14253415       2.45908619       1.21143410
H        2.69157648      -5.14620495       4.75424719        0      -0.07546514      -0.53409226       0.93303442
H        5.14850569      -5.28952074       4.66059017        0       0.52704040       0.31130952      -0.42338159
H        4.22155428      -6.01199198       3.36323714        0       0.60926508      -1.45519863      -0.89421541
H        5.01871634      -4.48933077       2.94015121        0       0.59646773      -0.19461109       0.38350879
H       -1.21777749      -2.75216103      -0.67106479        0      -0.15974902       0.55169309      -0.29298247
H        0.48490447      -3.46062398      -0.82496780        0      -1.30033609       0.51586693       0.41524932
H       -0.82675755      -4.35522318      -0.04546779        0       0.11717819       0.79423642      -0.13858746
C       -2.08382249       3.72833204      -2.72535086        1       2.86662054       0.90524552       1.89079033
O       -3.17378449       3.74578714      -3.08414888        1      -4.89914878      -1.08628293      -2.25143539
O       -1.12740350       2.83733606      -2.76382875        1      -0.59494399      -0.40267503      -0.95155535
O       -1.56006551       4.69471025      -2.06540489        1       2.15346182       1.79825140       2.21378452
C       -1.58874857       1.70020306      -3.44883490        1      -2.29472027      -0.08242267       0.67796047
C       -2.28840661       5.74245214      -1.46051478        1       2.08074611       1.15962291      -0.70042150
C       -0.45414153       0.85100704      -3.36961889        1       3.67651897      -2.98139225      -0.99333855
H       -2.43578243       1.26086402      -2.86593580        1       0.06354166       0.32548233      -0.42594704
H       -1.93360758       1.95085502      -4.45235777        1      -0.02860800      -0.01148060      -0.09650091
C       -1.32225347       6.47856522      -0.46667880        1      -1.10229530       2.25383687      -0.22893968
H       -2.52575541       6.39209318      -2.31151676        1      -0.34202639       0.47619180       0.33617195
H       -3.19098949       5.46081924      -0.96182978        1      -0.41750267      -0.65730278       0.24149319
H       -2.10644245       7.07842684       0.04377821        1       0.68697970      -0.40072071       0.71195656
H       -0.69625854       5.89442825       0.23203121        1      -0.75757054       0.14228212      -0.76458070
H       -0.70666450       7.36021805      -0.88886279        1      -0.52224412      -1.94480234      -0.01938715
H       -0.52047753      -0.20405194      -3.68769288        1      -0.59756521       0.37250210       0.23858296
H        0.31741849       1.24527109      -4.02588558        1       0.31355508       0.20669443      -0.20523626
H        0.01029548       0.87073505      -2.39034486        1      -0.28392316      -0.08230321       0.33372306
31
Properties=species:S:1:pos:R:3:molID:I:1:forces:R:3 Nmols=2 Comp=DEC(1):PC(1) energy=-1408.5969556824482 pbc="F F F"
C        3.81709933       0.19081572      -0.77279931        0       0.86527098       2.04558398      -1.96405060
O        4.22107506      -1.11277425      -0.42041028        0      -0.26742029       0.45255421       0.09938573
C        3.81782413      -1.41804826       0.81812572        0      -0.19493387      -0.09919387       1.98952701
O        3.29953933      -0.33823830       1.40721667        0       0.14466801       1.10159302      -0.54329461
C        3.47010612       1.31180573       0.17972670        0      -0.34992490      -3.60230323       2.49659231
C        5.00488043       0.88541371      -1.45527029        0       0.52546982      -0.09437660      -1.15811166
H        2.94867611       0.13206972      -1.43230033        0      -0.00469225      -0.44689760      -0.39531065
O        3.95645022      -2.51315618       1.35223472        0      -0.49541015       2.54312112      -1.16806710
H        4.23154736       1.99691772       0.55262572        0       0.07213485      -0.82249563       0.42195065
H        2.52960324       1.85547566       0.08802271        0      -0.07868808      -0.76218805       0.18392035
H        5.87637234       0.93941069      -0.80131626        0      -0.22699775      -0.20065185       0.05100334
H        5.29969025       0.35605070      -2.36176229        0       0.02360347      -0.05105308       0.02850157
H        4.74050903       1.90287971      -1.74402034        0      -0.05451711      -0.06331652      -0.05371085
C       -3.53282571       0.44830871       0.27877471        1      -1.23588037      -0.42638568       2.23884268
O       -4.04447889       0.33407670       1.40335667        1       1.30072405       0.24969114      -2.86144600
O       -4.12595558       0.96916169      -0.80395031        1       0.58429494      -0.01940798       0.07022637
O       -2.31622481       0.03843471      -0.08261029        1      -0.29528922       0.26405435      -0.16402176
C       -5.52046394       1.21449673      -0.78000027        1      -0.52673497       0.12495506       0.01208164
C       -1.53611875      -0.75349826       0.80211872        1       0.45153825      -0.25222647       0.15772295
C       -5.98864365       1.87165070      -2.07275629        1       0.08733794       0.02541151      -0.23371335
H       -6.02288055       0.25397471      -0.67804229        1      -0.18966657      -0.21762480       0.15825282
H       -5.79768991       1.83523476       0.07289871        1       0.14750043       0.08469074       0.20502869
C       -0.21305677      -1.09112823       0.11185771        1       0.04243997       0.15045063      -0.06296088
H       -1.35173583      -0.22670528       1.74009275        1      -0.03297586       0.18918081       0.05752364
H       -2.06969285      -1.67389727       1.04727471        1      -0.16878258      -0.07796071      -0.02926665
H        0.40656424      -1.72643125       0.74306273        1      -0.18779827       0.03702746       0.05114847
H       -0.38955379      -1.60473824      -0.83231431        1      -0.07414427       0.04236218       0.08922161
H        0.35444123      -0.18318228      -0.09522029        1      -0.14450500      -0.02355387       0.02185384
H       -7.03382301       2.16568971      -1.99626732        1       0.06061062      -0.03278806       0.21477143
H       -5.40621090       2.76081276      -2.31460428        1       0.03396289      -0.15834637       0.10600734
H       -5.92334890       1.16736972      -2.89895439        1       0.18880529       0.04009414      -0.01960833
36
Properties=species:S:1:pos:R:3:molID:I:1:forces:R:3 Nmols=3 Comp=DMC(3) energy=-1768.3267785011165 pbc="F F F"
C        2.63225603      -0.51730144      -3.90489793        0      -2.22625412      -0.09191844      -0.61590252
O        1.75449109      -0.61694044      -4.79476595        0       3.42071673      -0.27811325       2.86971493
O        3.38847399      -1.50051546      -3.27347183        0      -0.58826075       1.93425277      -0.31716666
O        2.85308909       0.69041556      -3.24035287        0       0.73925894      -2.15897358      -0.85750238
C        3.39238811      -2.86320734      -3.60448384        0      -1.37308365      -1.42073459      -2.26334564
C        2.05276608       1.77268255      -3.60952091        0       1.91083358       2.22088399      -1.62599969
H        2.38110304      -3.35168338      -3.47365785        0       0.62260890       0.63508863       0.32142751
H        3.50617003      -2.95900035      -4.75225782        0       0.42726271      -0.01556719       1.49276425
H        4.11866188      -3.52281451      -3.04466486        0      -0.46491232       1.48511268      -0.55235830
H        2.60457206       2.79667664      -3.50218391        0      -0.50002900      -1.81548724       0.65332617