1
Lattice="20.0 0.0 0.0 0.0 20.0 0.0 0.0 0.0 20.0" Properties=species:S:1:pos:R:3:forces:R:3 config_type=IsolatedAtom energy=-10.707211383396714 pbc="F F F"
H        0.00000000       0.00000000       0.00000000      -0.00000000      -0.00000000      -0.00000000
1
Lattice="20.0 0.0 0.0 0.0 20.0 0.0 0.0 0.0 20.0" Properties=species:S:1:pos:R:3:forces:R:3 config_type=IsolatedAtom energy=-48.847445262804705 pbc="F F F"
C        0.00000000       0.00000000       0.00000000      -0.00000000      -0.00000000      -0.00000000
1
Lattice="20.0 0.0 0.0 0.0 20.0 0.0 0.0 0.0 20.0" Properties=species:S:1:pos:R:3:forces:R:3 config_type=IsolatedAtom energy=-102.57117256025786 pbc="F F F"
O        0.00000000       0.00000000       0.00000000      -0.00000000      -0.00000000      -0.00000000
24
Properties=species:S:1:pos:R:3:molID:I:1:forces:R:3 Nmols=3 Comp=VC(3) energy=-1602.093208085042 pbc="F F F"
C        0.45285612       3.01426506      -2.32330513        0       3.62106606      -1.12550680      -0.19684125
C       -0.65326887       3.32036090      -1.70732403        0      -1.81489737       1.01194504      -0.49020132
O       -0.82637185       2.63587189      -0.55307001        0       1.41031489      -1.26663628       0.06188905
C        0.26635113       1.80842292      -0.42423803        0       1.27416396       1.38844752      -1.73986379
O        0.50404215       1.07012391       0.47730500        0      -0.61981038       0.63996309      -0.89362449
O        1.20395112       2.09938192      -1.54059100        0      -3.53123319       0.61084665       1.50360436
H        0.99488211       3.42258286      -3.19497991        0      -0.71396603      -0.51942534       0.75149469
H       -1.42996383       3.95062685      -2.12583590        0       0.03097542      -0.19964488       0.59769880
C        1.26803315       0.08491497       2.52308202        1       0.65480947      -1.14022036       2.08585961
C        0.71784115      -0.92897701       3.20788789        1      -5.26405952       0.22643523       1.88452821
O        0.64552510      -2.02956414       2.40690088        1       0.96823076      -0.94201777       0.52119636
C        1.62233818      -1.82807600       1.46278298        1      -0.41482569      -1.20143422      -1.22733270
O        2.07954812      -2.65240097       0.69964898        1      -0.91853127       1.45343521       1.43428658
O        1.90033615      -0.53814703       1.52785194        1       2.51044506       0.92653883      -1.79500979
H        1.60973608       0.97362196       3.01618791        1       0.04719281       0.33493254      -0.77449250
H       -0.23638988      -0.89091206       3.98334789        1       2.80150221      -0.10651323      -1.71485168
C       -2.61711597      -1.50253499       0.01472599        2       0.50478395       2.47864959      -1.00566519
C       -1.65134692      -2.33284712      -0.23200200        2       2.75766410      -1.01761516      -0.45354364
O       -0.75461686      -1.64041007      -1.12287402        2      -0.07451072      -2.49583912       0.90103163
C       -1.23930693      -0.42871904      -1.39447701        2       0.29818897      -0.80850703      -0.94432786
O       -0.76134789       0.30777997      -2.22421694        2      -0.98455609      -0.47602768       1.41198409
O       -2.37302589      -0.32890302      -0.69123900        2      -1.25788384       1.06603386       0.34345775
H       -3.27383399      -1.43262005       0.79540098        2      -1.76535623      -0.00240229       1.06447075
H       -1.51131582      -3.31143308       0.29795000        2       0.48029268       1.16456260      -1.32574766
22
Properties=species:S:1:pos:R:3:molID:I:1:forces:R:3 Nmols=2 Comp=DMC(1):EC(1) energy=-1151.6688033579703 pbc="F F F"
C        2.69088602       2.54591513      -2.12696218        0      -1.44302882       4.71896954       1.76744346
O        2.34068704       3.64524508      -1.67616713        0       0.49261950      -2.16502856      -0.87601464
O        1.94911408       1.49887204      -2.25967312        0       0.08290276      -1.50319163      -0.60949423
O        3.84929514       2.26471615      -2.58353305        0       2.38826982      -1.13778665      -0.64777106
C        0.58085805       1.60748911      -2.26327205        0      -1.67246761      -0.37329840      -0.89736654
C        4.93368006       3.14626217      -2.62285423        0       2.55973756      -0.98252846      -1.05991298
H        0.20010208       1.35155511      -1.32161117        0      -0.59307375      -0.34573938       1.76688746
H        0.13602108       2.57295012      -2.51098919        0       0.55033615       0.21276971      -0.24590246
H        0.19209708       0.83466810      -2.94893003        0       0.20277521       0.32784010      -0.10811587
H        5.82548094       2.54683304      -3.02168822        0      -1.01599830      -0.01199392       0.62864621
H        4.87149000       3.85138416      -3.42286325        0      -0.77010801       1.05527897      -0.16147346
H        5.33360624       3.57181811      -1.71259320        0      -0.78097032       0.20739009       0.44230873
C       -3.41220593      -1.40147686       1.27721584        1       3.64054136      -2.81566267       1.08263902
O       -2.92165089      -1.47329795       2.67879891        1      -1.00730296       1.23045966      -1.84974758
C       -2.61571789      -2.75121093       2.98010492        1       2.01716624       2.21029162       2.34244272
O       -3.01706386      -3.61698890       2.14714384        1      -0.84185866      -0.82087526      -3.92810567
C       -2.94653201      -2.85366082       0.89804888        1      -1.06634372      -0.75061646      -0.84421464
H       -4.42421579      -1.24309289       1.20551991        1      -2.15521241       0.42518767       0.11001940
H       -2.80409384      -0.83304894       0.58278483        1      -0.06996537       1.03528950       0.60791017
O       -1.86870396      -2.94726801       3.88132596        1      -0.13940783      -0.44661913       1.10839100
H       -3.50762296      -3.30938387       0.07090886        1      -0.53079339      -0.18326027       0.61016437
H       -1.93009996      -2.85789800       0.47551787        1       0.15218256       0.11312392       0.76126658
25
Properties=species:S:1:pos:R:3:molID:I:1:forces:R:3 Nmols=2 Comp=DMC(1):PC(1) energy=-1237.237209489243 pbc="F F F"
C        2.67575073       2.86108518      -2.86082530        0      -1.30097570      -1.36862690       1.83477318
O        2.76785755       3.16294599      -1.37367737        0       2.81754333       3.21457277      -4.01299763
C        2.53783751       2.18929100      -0.59767431        0      -0.55950426       2.04121600       5.40751014
O        1.93164957       1.26053202      -1.20610726        0      -1.61137385      -3.50925478      -2.49817815
C        1.75701964       1.53768110      -2.68214726        0       1.83647158       0.68400742       2.01585908
C        1.82226360       3.92414308      -3.45830131        0      -0.23871064       0.37550063      -1.29201094
H        3.62236261       2.79383111      -3.48461127        0      -0.71111490      -0.40100834       1.51896640
O        2.62325168       2.39863515       0.62851471        0       0.06653047      -1.57737196      -3.09928319
H        0.69594961       1.78663802      -2.79194736        0       0.33209784      -0.31548514      -0.25553672
H        2.12722850       0.64140809      -3.18146920        0      -0.32683081       0.22616509      -0.09842209
H        0.94558364       4.07772589      -2.83702040        0       0.23616695       0.63635891       0.22349728
H        2.44793057       4.83902597      -3.65341330        0      -1.11245845      -0.83020881       0.14549641
H        1.39495564       3.45968413      -4.37784052        0       0.56515652       0.82509144       0.10667999
C       -2.77969742      -2.77740502       1.95494866        1       1.98409950      -0.14078010      -1.93362978
O       -3.66863132      -2.42830992       2.60583663        1      -2.90542638       1.44794122       1.50300244
O       -2.29131937      -2.42984796       0.79584169        1      -1.00253771       3.19629893      -3.24858669
O       -1.89286339      -3.66918087       2.21758556        1       1.54786360      -2.60940773       1.41288002
C       -2.91089439      -1.28356600       0.07705668        1       1.89642600      -1.15162137      -0.78334730
C       -2.05939937      -4.26767588       3.43624568        1       0.99074494      -3.64001500       0.93542783
H       -3.72709346      -1.70948493      -0.53036433        1       0.38969980       0.63617318       0.22162127
H       -3.16581345      -0.57542592       0.80696666        1      -1.04987185       0.78259073       0.93248256
H       -2.09199142      -0.74095094      -0.52423334        1      -1.07479040      -1.32118166       0.47894917
H       -1.32394242      -5.09556913       3.62502956        1      -0.15739394       0.56448693      -0.84804908
H       -1.93663037      -3.67549205       4.25493479        1       0.62014139       2.56192162       2.09449974
H       -2.99357438      -4.73741913       3.66374469        1      -1.23195305      -0.32736309      -0.76160393
27
Properties=species:S:1:pos:R:3:molID:I:1:forces:R:3 Nmols=2 Comp=DMC(1):EMC(1) energy=-1265.180028034832 pbc="F F F"
C       -2.03106403       0.65746909       0.26760513        0       0.98555934      -0.42535498      -0.10633788
O       -1.07807493       0.48504212       1.01702011        0      -2.17789891       0.87992234      -2.16891800
O       -3.26775193       0.23020512       0.42069915        0      -0.74313263      -0.38011230      -0.33893217
O       -2.21094799       1.20861411      -0.95951784        0       2.83182507       0.12702591      -0.60351812
C       -3.54576588      -0.43989488       1.59327912        0      -0.55223350       0.92076065       2.17889453
C       -0.96694797       1.71850216      -1.62740982        0      -2.55346537      -0.97363999      -0.17803650
C       -5.02091789      -0.62569290       1.77413309        0      -2.43043276      -3.38432755      -1.10590042
H       -3.05448604      -1.41090190       1.60176313        0       0.36670347       0.08595527       0.39358467
H       -3.22410202       0.31734413       2.37260509        0       0.18724531      -1.36618818       0.08940653
H       -0.72410798       2.40959311      -0.88021588        0       1.32314528       1.44888278       0.16549100
H       -0.25252098       0.92709315      -1.77050185        0       0.18392482      -0.28990190       0.25588645
H       -5.35431385      -1.19761384       2.70942616        0       0.98390135       0.83072053      -1.14347294
H       -5.65353584       0.21069811       1.69021618        0      -0.07093223       1.50044560       0.24868063
H       -5.48677492      -1.27245092       0.88484311        0       1.25100885       0.82632357       1.54819069
H       -1.31561697       2.06881022      -2.61999083        0       0.27156532       0.17735849       0.84257396
C        2.86216998      -0.54789591      -0.30648586        1      -1.29999496       2.83588086       0.24865513
O        2.04342008       0.15615812       0.27660215        1       1.24049576      -2.48924095       0.49428262
O        3.26260614      -0.10306588      -1.49444783        1       0.72998208      -0.98746920      -0.72248560
O        3.59369302      -1.61061084      -0.04163986        1       0.26854721       0.34168970       0.19012287
C        2.62956214       0.98352611      -2.09231687        1      -0.27224153       1.06504974      -0.20527242
C        3.55574894      -2.15067077       1.29780114        1      -1.62342756       0.93331613      -1.30990327
H        1.88944602       0.64559013      -2.80296278        1      -0.24807240      -0.30642385      -0.38656659
H        2.08495712       1.70345008      -1.42564690        1       0.87038645      -0.68158457      -0.08896534
H        3.46013594       1.43517017      -2.62836289        1      -0.20121891       0.54651175      -0.12191244
H        4.11010695      -3.05958986       1.20176017        1       0.94234581      -0.03528665       0.59829777
H        3.79936910      -1.30624783       1.98418510        1      -0.03427572      -1.25933599      -0.12544949
H        2.50926495      -2.46688581       1.28762710        1      -0.22930963       0.05902281       1.35160434
40
Properties=species:S:1:pos:R:3:molID:I:1:forces:R:3 Nmols=4 Comp=EC(4) energy=-2248.1644835301763 pbc="F F F"
C       -0.45859733       3.28287387      -3.49498057        0      -1.02964088       2.44036197      -2.62142183
O        0.88948870       3.79171300      -3.25429845        0      -2.44024720      -0.78844767       0.70340402
C        1.77967572       2.90106797      -3.77192235        0       0.17839822       3.88313800      -0.31232209
O        1.17627263       1.93414199      -4.35922432        0      -0.15995377      -2.00047855      -0.64709496
C       -0.21532533       1.93098700      -4.04651356        0      -0.23860181      -3.35198939       0.13525636
H       -1.27154136       3.41099501      -2.76392436        0       1.11580969      -0.14261261       0.41614468
H       -0.92158234       3.83359003      -4.43693542        0       1.01129830      -0.01693160       1.54962332
O        2.90443778       3.31073308      -3.80425644        0       0.38751531      -1.65296589      -0.21742359
H       -0.37066332       1.10437799      -3.21093941        0       0.06712425       1.07272958      -1.56852920
H       -0.76461333       1.62513399      -5.02565050        0       0.72730400       0.51091119       1.75312419
C       -3.80103922      -2.50376415       2.43770266        1      -1.00674411       0.71035417      -3.12390011
O       -3.38939834      -3.25377202       1.26028454        1       0.86604768      -0.66337216       0.52313075
C       -2.30445933      -3.99550915       1.61562252        1       2.89373971      -0.24361420      -2.22550806
O       -2.14457035      -4.05070019       2.94205546        1      -0.67962715       0.54789211      -0.54771738
C       -2.87330842      -2.91826797       3.46709847        1       1.56061260      -1.69201553       3.42490023
H       -3.50343823      -1.48718607       2.20085359        1      -0.75929802       0.62954262      -0.30100640
H       -4.90017223      -2.60740995       2.47806549        1       0.54052099      -0.11388727       0.50508620
O       -1.42242634      -4.39646721       0.83060056        1      -3.30253559       0.80649153       2.09357706
H       -2.05277324      -2.11510110       3.58914661        1      -1.30202574      -1.14077677       0.77284507
H       -3.41370034      -3.34911704       4.41145039        1       1.25499681       1.17876329      -1.12773283
C        2.30157065       3.02082801      -0.87318546        2       2.05473850       0.98566782       0.38669201
O        1.55322373       4.09202099      -0.41163146        2      -1.49998819       0.19168174      -0.62351492
C        0.22185968       3.76526093      -0.52127045        2      -0.59176904       3.63828609       2.40993820
O        0.00528267       2.46501303      -0.45626047        2       2.80117283      -0.67423269      -2.07082363
C        1.41516268       1.88063395      -0.86391044        2      -4.14718597      -3.45500107       0.38067975
H        2.83828473       3.31009007      -1.79112947        2      -0.49467311      -0.24972666      -0.00772500
H        3.08249879       2.85036993      -0.17078246        2       1.02991433      -0.06948351       1.03564458
O       -0.57856935       4.68077612      -0.37167346        2       0.95681577      -2.54881062      -0.79633335
H        1.33951473       1.28182793      -1.79590452        2      -0.33893043       0.88495502      -0.16935120
H        1.47189569       0.99151593      -0.16966246        2       0.60043592       1.35766190       0.25726959
C        0.88761669      -2.09321308       0.81132352        3      -3.70423616      -0.54123346      -1.44430376
O        0.03761967      -1.97608399       2.01637745        3      -0.19455703       2.74456809      -1.17131930
C        0.60278767      -2.53470492       3.05735755        3       0.83635149      -2.68859326       0.63951379
O        1.52326167      -3.40426898       2.49319744        3       0.03483702      -0.86690659       1.99679364
C        1.51099765      -3.45389700       1.07032657        3       0.35855844       2.96666867       1.81723816
H        0.08297767      -2.01841211      -0.05692146        3       1.41167270      -0.55782875       1.48250804
H        1.59659469      -1.32058406       0.56207752        3       0.19832599       0.54328106       0.92742040
O        0.34869966      -2.52002215       4.24030066        3       0.33005817       0.61831501      -2.51404155
H        1.02420068      -4.25862026       0.65650052        3      -1.23837654      -1.83379367      -0.57210434
H        2.53591371      -3.38821101       0.90628552        3       1.91214201      -0.41856793      -1.14861653
30
Properties=species:S:1:pos:R:3:molID:I:1:forces:R:3 Nmols=3 Comp=EC(3) energy=-1687.2692238458048 pbc="F F F"
C       -4.12463999      -1.38331330      -2.42669320        0       0.09104650      -0.15763039       0.98994118
O       -4.85671186      -0.58527428      -3.29135799        0      -0.98012076       1.37422403      -0.74262993
C       -4.90107059      -1.11834621      -4.56758595        0      -1.12794931       0.67673822       1.08467529
O       -4.02001286      -2.08291125      -4.62866592        0       1.45807675      -0.89482105      -0.32429035
C       -3.24393392      -2.16244316      -3.42454815        0      -3.01201907      -1.17568812       0.95868559
H       -3.52626491      -0.84614927      -1.66835916        0      -0.08465048       0.41016128      -0.70877470
H       -4.85408068      -1.92120123      -1.77655911        0       0.41580059      -0.47198054      -0.69237947
O       -5.69529676      -0.78748024      -5.39322805        0       0.89551726      -0.15010949       0.47420076
H       -2.31512570      -1.72622728      -3.47138715        0       2.10108454       0.96385609      -0.69241821
H       -3.18651271      -3.17717123      -3.06380701        0       0.22651304      -0.58505138      -0.34151321
C        0.30978417      -0.65456825      -0.57457012        1       2.58552324      -0.84180302       0.97681712
O       -0.88102782      -1.13273120      -0.17320210        1      -2.67352084      -0.34970297       1.23867786
C       -1.14308679      -2.33998322      -0.65088713        1       1.53931777       0.53508340      -2.08839916
O       -0.15073483      -2.73469424      -1.49947405        1       1.74784525       0.60110252       0.75866028
C        0.98336518      -1.88646221      -1.22591114        1       0.75148662       0.75502601      -0.96806784
H        0.22791818       0.14389074      -1.23837507        1      -0.32078005       1.57333470      -1.09122087
H        0.85364717      -0.37587824       0.35009891        1       0.08096431       0.30423257      -0.47223783
O       -2.14108491      -2.93444228      -0.60166711        1      -2.03810674      -1.00249535       0.83374200
H        1.68404114      -1.63605428      -2.08693218        1      -1.57307414      -0.35718140       0.27611214
H        1.70171022      -2.23403931      -0.50286508        1      -0.08203307      -1.21664304       0.52584898
C        3.67231321       2.92746186       3.89800692        2      -0.55411990      -1.22280470       1.96551821
O        4.82196808       2.26200986       4.53771782        2      -2.75631484      -2.23145319      -0.78421429
C        5.47337103       3.08063078       5.26452112        2       3.23302845       2.21541170       1.04417750
O        5.27526140       4.36545181       4.83315992        2      -0.63050348      -0.47204356      -0.05615252
C        4.28790140       4.29067278       3.83464384        2      -0.82883767       2.07491570      -0.60316602
H        3.43658614       2.38041568       2.99494600        2       0.38128142       0.23686614      -0.39144115
H        2.68566012       2.82074285       4.53663397        2       1.86752376       0.29129061      -0.53946525
O        6.34440804       2.87332678       6.06447983        2      -1.10951032      -0.52041832      -0.39576775
H        4.68179321       4.43559790       2.83605695        2       0.74582793       0.04762879      -0.35222316
H        3.64824009       5.17260456       3.99479294        2      -0.34929678      -0.41004525       0.11730479
28
Properties=species:S:1:pos:R:3:molID:I:1:forces:R:3 Nmols=2 Comp=EMC(1):PC(1) energy=-1323.491520892081 pbc="F F F"
C        1.72377765       3.32298040       1.23377502        0      -2.91127490      -2.72413516       1.28641810
O        2.63007474       3.96519041       1.53447902        0       4.08827901       1.97597926       1.18536222
O        1.29991972       2.14615750       1.84063101        0      -0.18649055       1.29714605      -0.54894020
O        0.77926767       3.66562247       0.43865305        0      -2.49916204      -0.80108006      -1.80490832
C        1.90697467       1.75645757       3.04736710        0       0.69608652      -2.68811528      -0.53381858
C        0.88982570       4.74090958      -0.45231396        0       0.46251438       1.65207112       0.50532410
C        1.15173769       0.57867450       3.70658803        0      -1.17876589       0.20524625       0.88773945
H        2.79456258       1.18240547       2.76503110        0       0.87593431       0.51921097      -0.22261867
H        2.20889378       2.54168057       3.70765495        0      -0.30146360       0.64759805       0.31587866
H        0.10335267       4.74462366      -1.20242596        0      -0.43170834      -0.27526035       0.44874135
H        0.86104167       5.71037769       0.15870804        0       0.16634247      -1.00685691      -0.95020014
H        1.82548165       0.10581652       4.46028614        0      -0.53748616       0.40144695      -0.61897022
H        0.22868967       0.92526150       4.24658728        0       0.78223159      -0.31154236      -0.50444586
H        0.82980067      -0.20090248       2.97496009        0       0.43772535       0.86493192       0.43806896
H        1.80501771       4.65960073      -1.02614200        0       0.53449858       0.24267085       0.12040205
C       -1.31142235      -4.00997543      -1.90670896        1      -0.17162809      -2.43727945      -0.99210103
O       -1.36890638      -2.83475542      -2.73198986        1      -1.71886732      -1.22203315       4.18105838
C       -1.54313231      -1.91736245      -1.71109498        1       4.03999974      -0.08660920      -0.75497557
O       -1.16352928      -2.32432938      -0.44027796        1      -2.30992373      -1.59014049      -0.76369357
C       -1.41685629      -3.77515841      -0.40252295        1       0.67753642       1.29204825      -0.03671063
C       -2.38931227      -5.01158953      -2.23772907        1      -0.06883141      -1.26381506      -1.07478534
H       -0.30356833      -4.38847160      -2.05719805        1       0.17715948      -0.49157039      -0.49838814
O       -1.39821637      -0.80781245      -2.05047894        1      -1.28435843       3.03528332       0.31199535
H       -2.34512043      -4.16522455       0.13714604        1       0.76875057       1.21257474      -0.85231610
H       -0.57648534      -4.34543562       0.01129304        1      -0.02899083       0.63633572       0.56161213
H       -3.37616634      -4.65697241      -2.00140500        1      -0.29368845       0.43741038       0.09879256
H       -2.36349630      -5.22382641      -3.30567098        1      -0.08180049      -0.06594621      -0.07650712
H       -2.28031039      -5.97883224      -1.71653998        1       0.29738180       0.54443024      -0.10801384
46
Properties=species:S:1:pos:R:3:molID:I:1:forces:R:3 Nmols=3 Comp=DEC(2):EC(1) energy=-2083.807425680116 pbc="F F F"
C        1.12228513       2.57065392       3.05553150        0      -1.20977410      -2.39165186      -1.96402866
O        0.89510715       3.33680701       3.90915251        0       0.07389339       1.87891231       2.12228931
O        0.83131516       1.22789502       3.08354163        0       1.07191842       2.09452527       4.46538507
O        1.47916710       2.80396104       1.84003460        0       0.98623913      -0.46858633      -1.97824022
C        0.86742717       0.93730795       4.75010538        0      -0.81319099      -0.85065789      -3.67144715
C        1.98150611       4.01263905       1.23323762        0       0.02161256       0.42583203       3.30068805
C        0.80585617      -0.58874100       4.48594856        0       0.13114651       0.64504394       1.71576400
H        1.87435615       1.08331895       5.15053034        0      -0.46296685       1.07036558      -0.26466142
H       -0.02357686       1.61593997       5.10627460        0       1.84082445      -1.74825154      -0.32262755
C        0.86050314       4.98110104       1.04421353        0       0.45615048       1.59126832       0.22788044
H        2.59138203       4.60207987       2.06282258        0      -0.14130671      -1.54446403      -1.60113504
H        2.49448419       3.56533098       0.39430356        0       0.28973623       0.76188372      -0.25665782
H        1.30257308       5.96039391       0.89348656        0       0.19919606       0.41216994       0.30117612
H        0.26657715       4.89897490       0.20957758        0      -1.32638563      -1.03440365      -2.10561990
H        0.17814614       5.04733515       1.87895453        0       0.22857485      -0.20764160       0.52237180
H        1.16012108      -1.13257897       5.37814569        0      -0.81903690       0.08294068      -0.03044869
H       -0.23201686      -0.73150504       4.21799374        0       0.32696534      -0.98221704      -0.27996942
H        1.59177709      -0.83813405       3.75746059        0      -0.90207460       0.24867543      -0.19557377
C       -3.41360188      -0.98489702      -1.42369044        1       0.27889267      -2.38447354       1.18833662
O       -4.55164003      -0.98675704      -1.68807948        1      -3.02753642      -0.71764787      -2.39685745
O       -2.50612378      -1.95843303      -1.43353546        1      -0.70843182      -1.31741138      -1.16796403
O       -2.91195083      -0.18129502      -0.62358844        1       3.22462813       3.26672367       2.67299997
C       -2.94922781      -3.16452909      -2.04602051        1      -1.27077314       0.76728944      -1.56913250
C       -3.65715981       0.89645898      -0.14776742        1       1.67943183      -0.19823206       3.72783325
C       -1.73851287      -4.02535009      -1.99297738        1       0.21330814      -2.70580929      -0.41962040
H       -3.87312388      -3.66752005      -1.60215044        1       1.12425050       0.89133705       0.11339771
H       -3.32941294      -2.82905102      -3.10723448        1       0.84407016      -0.97838960       1.30383604
C       -2.66523385       1.63324594       0.88361657        1      -2.79177186       0.67497055      -0.05093687
H       -3.91746187       1.44909501      -0.97636640        1      -0.99201483       1.68221122      -1.34781737
H       -4.52412081       0.52065700       0.48019758        1       0.61961995       0.37959238      -0.94350639
H       -3.43014789       2.24482489       1.47997653        1       1.54819533      -0.59847384      -0.41156578
H       -2.09312892       0.97019100       1.50268054        1      -0.47345881      -0.69687105       0.30502411
H       -1.89375591       2.26521993       0.49221757        1      -0.17821229       0.44937622      -0.83310846
H       -2.09110880      -5.09659481      -2.20086837        1       0.79553288       1.27893502      -0.37777000
H       -0.93603188      -3.68115592      -2.69023538        1      -0.78725616      -0.49660666       0.66042116
H       -1.35541391      -4.14123487      -0.96314341        1      -0.10895674       0.65930865      -0.46156861
C        2.30126524      -3.24978709      -3.27970552        2      -0.70069159       3.44734292       1.26018599
O        3.00183821      -1.84303808      -3.55832553        2      -0.41289933      -3.40948673      -0.35966592
C        2.96121526      -1.04488206      -2.52093434        2      -2.58537908      -2.03375425       0.55880003
O        2.09142613      -1.54451299      -1.57714641        2       0.62031903      -1.38191785       0.06174988
C        1.89760613      -2.98708797      -1.72157145        2       2.47026606       0.75839265      -0.60444044
H        1.30514014      -3.13057709      -3.81170249        2       1.51684300      -0.68772363      -0.05388566
H        3.03420115      -4.06249380      -3.52643442        2      -1.05763411       0.99043854       0.26563726
O        3.41751218       0.01574698      -2.43227243        2       1.36045106       2.20161277       0.02612078
H        0.90290713      -3.12530494      -1.34257340        2      -0.43058241      -0.45109369      -0.49130924
H        2.63837409      -3.52872992      -1.04472041        2      -0.72173176       0.62661712      -0.64033879
31
Properties=species:S:1:pos:R:3:molID:I:1:forces:R:3 Nmols=2 Comp=DEC(1):PC(1) energy=-1410.956525021848 pbc="F F F"
C       -2.17536664      -0.12906668      -1.11784172        0       0.06817162       0.69319963      -0.96113726
O       -1.34424663      -0.81957370      -0.64080775        0       1.39489062      -1.19107346       1.04385856
O       -3.24678564       0.35303932      -0.51759273        0      -0.37507070       0.46110158       0.31400587
O       -2.10225153       0.32426533      -2.37789369        0      -2.15436886       1.34950740       0.44354928
C       -3.46582150       0.10677933       0.88375926        0      -0.55398152      -0.74071105       0.25229520