1
Lattice="20.0 0.0 0.0 0.0 20.0 0.0 0.0 0.0 20.0" Properties=species:S:1:pos:R:3:forces:R:3 config_type=IsolatedAtom energy=-10.707211383396714 pbc="F F F"
H        0.00000000       0.00000000       0.00000000      -0.00000000      -0.00000000      -0.00000000
1
Lattice="20.0 0.0 0.0 0.0 20.0 0.0 0.0 0.0 20.0" Properties=species:S:1:pos:R:3:forces:R:3 config_type=IsolatedAtom energy=-48.847445262804705 pbc="F F F"
C        0.00000000       0.00000000       0.00000000      -0.00000000      -0.00000000      -0.00000000
1
Lattice="20.0 0.0 0.0 0.0 20.0 0.0 0.0 0.0 20.0" Properties=species:S:1:pos:R:3:forces:R:3 config_type=IsolatedAtom energy=-102.57117256025786 pbc="F F F"
O        0.00000000       0.00000000       0.00000000      -0.00000000      -0.00000000      -0.00000000
31
Properties=species:S:1:pos:R:3:molID:I:1:forces:R:3 Nmols=2 Comp=DEC(1):PC(1) energy=-1408.8097735489612 pbc="F F F"
C       -0.19142814      -0.40361288       4.16428185        0       3.69777269      -0.54303742      -2.29454145
O       -0.28312513       0.64730513       4.73170614        0      -1.30004843      -1.05526534      -0.02274608
O       -0.76516312      -0.83406287       2.94773197        0      -0.14967439       3.42645020       3.48582053
O        1.00729585      -1.14781392       4.26832008        0      -2.34531977      -0.00416929      -0.82975879
C       -1.63606417       0.29955411       2.55979800        0       0.10745011      -0.87827717      -3.81001085
C        1.70765591      -1.34582388       5.44730091        0       1.83574864       0.78729498       1.16146018
C       -2.03514910      -0.20965190       1.11936700        0      -1.06651605       0.21140773      -0.25259689
H       -2.51417518       0.36837211       3.21322489        0       0.60411058       0.34185496      -0.06322176
H       -1.09189916       1.27613413       2.21248293        0      -0.61225648      -1.49473731       1.84514587
C        3.10235882      -1.99955893       5.04745388        0      -3.34731358       1.24607384      -3.66632570
H        1.91630888      -0.40353489       6.03991985        0      -0.27840330      -0.40484699      -0.78181857
H        1.11467087      -1.96355093       6.11802006        0       0.08262846      -0.49318687       0.13563424
H        3.73001194      -2.13147187       5.83526802        0       1.59911031      -0.04866903       1.86573943
H        2.78470778      -2.96161199       4.61276197        0       0.58870486       0.26163781       0.07071152
H        3.50697374      -1.34077287       4.16540289        0      -0.44722426      -1.24317709       1.86180857
H       -2.85044312       0.31875411       0.55284798        0       1.22478075       0.53751180       0.72763138
H       -1.10949111      -0.29549590       0.54306000        0      -0.43338242       0.22177164      -0.00543808
H       -2.50317025      -1.17669487       1.13344896        0       0.24708699      -0.86521712       0.56029815
C       -1.00848615      -0.02332490      -4.94982576        1      -2.35652931      -0.23723532       3.43538168
O       -0.45261416       0.44784209      -3.61561894        1      -2.54992119      -2.56773665       0.97222915
C        0.33068886       1.45759916      -3.61104202        1       1.23840881       1.40160174      -2.22310232
O        0.44954085       1.82339108      -4.94292212        1      -0.78658316      -0.55302172      -2.19884950
C       -0.33123714       0.87144512      -5.87859106        1       2.30979225       1.35778231      -1.30704192
C       -0.90954715      -1.54318190      -4.88455486        1      -1.33229558      -1.02756480      -0.24110467
H       -2.14568520       0.21811511      -5.04469824        1       1.42017277      -0.25873788       0.93094868
O        0.94274288       2.01790810      -2.75200391        1      -0.94286907      -0.79747285      -0.52958874
H        0.42202985       0.23753311      -6.49489021        1      -0.75816914       1.48280164       0.64674598
H       -1.10496616       1.41775608      -6.57685089        1       1.89593797      -0.52392315       1.30109906
H       -1.66770816      -2.08939099      -4.22213602        1       1.04577010       1.48161856      -0.14331553
H       -1.24906909      -1.95130086      -5.82987595        1       0.45903570       0.09748228      -0.62945443
H        0.06325685      -1.92520690      -4.63312483        1       0.34999509       0.14098654      -0.00173913
12
Properties=species:S:1:pos:R:3:molID:I:1:forces:R:3 Nmols=1 Comp=DMC(1) energy=-589.804696515123 pbc="F F F"
C        0.05819633       0.13189794      -0.08079887        0      -0.48629695      -0.46698384       0.87923213
O       -0.30920467       1.07662690      -0.72583890        0       0.42788381      -0.80270354       0.08665554
O        0.71881336      -1.00085008      -0.55590689        0      -1.51311967       1.30174531       2.09639448
O       -0.20300467      -0.00736606       1.27133512        0       0.05250081       0.01817473      -0.96782785
C        0.73045331      -1.22279704      -1.92519689        0      -0.45565059       3.45381050      -1.87024864
C       -0.97527969       0.97390896       2.04064703        0       1.07584365       0.72107918      -2.29290544
H        1.31899333      -2.08817410      -2.10513878        0      -0.26148416      -0.84115559      -0.20437404
H       -0.28959066      -1.04556501      -2.45581985        0       1.27303567      -1.16158135       1.07796754
H        1.29524732      -0.34030405      -2.38149285        0      -0.13108717      -0.80469010       0.18009725
H       -1.74142468       1.50701499       1.45021415        0      -0.00807047      -0.82770849       0.01541173
H       -1.31668663       0.49494395       2.90699601        0      -0.65011649      -0.86127752       0.77886212
H       -0.32332265       1.77933693       2.33787704        0       0.67656156       0.27129071       0.22073516
33
Properties=species:S:1:pos:R:3:molID:I:1:forces:R:3 Nmols=2 Comp=DEC(1):EMC(1) energy=-1437.5146270544676 pbc="F F F"
C        0.15236540       3.51155472      -1.57514453        0       0.43392089       1.53283877       2.37674313
O        0.14311139       4.39696646      -0.72659057        0      -0.98135855      -1.46796437      -0.74203594
O       -0.48970261       2.35030866      -1.57399154        0      -1.19087580       0.44560288       0.37325052
O        0.96067739       3.56604862      -2.58335257        0       1.46504400      -0.71365363      -0.76749510
C       -1.76036060       2.33732867      -0.82504654        0       0.54508662       0.00609391      -0.83102812
C        1.86244142       4.68875170      -2.68097043        0      -0.61363809       0.66039107      -0.56517846
C       -2.44130754       1.03275073      -1.21690452        0      -3.54443628       3.24682786      -0.22736731
H       -1.51844859       2.35142565       0.24230045        0      -0.14651599       0.11946397      -0.10330431
H       -2.32502651       3.22153759      -1.13080752        0       0.01052136       0.03073448       0.24485053
C        1.05854535       5.56550980      -3.64900446        0      -1.23457986       0.07769451      -0.97679369
H        2.10800433       5.13573790      -1.70914459        0      -0.35469543      -0.14311275      -0.16746917
H        2.76035833       4.27797985      -3.14246964        0       0.02493208       0.13706213      -0.09032884
H        1.38715637       6.28393555      -4.38226748        0       1.41106380       0.71932159       0.75809679
H        0.74189740       4.82405567      -4.35895157        0      -0.58639073      -0.81256035      -0.50910787
H        0.10051740       5.98712873      -3.27948260        0       0.82982888      -0.29817075       0.59240607
H       -3.25288057       0.78958970      -0.51930356        0      -0.11998976       0.39213846      -0.42773546
H       -2.74868464       0.94774270      -2.26228666        0      -0.18627066       0.50289442       0.29010744
H       -1.75200558       0.37573767      -1.06571651        0       4.23234804      -4.43422678       0.76711143
C        0.16137139      -3.44138336       1.79274750        1       1.80392932      -0.22177968       1.27916072
O        0.84905237      -2.45975542       2.11525035        1      -1.94103693      -3.33015850      -0.14957734
O        0.02935240      -4.74417019       2.35271049        1       2.04749492       3.51718876       0.91080795
O       -0.56081563      -3.52587223       0.72043246        1      -0.64135456      -0.29860744      -0.38551740
C        0.69397539      -4.80779552       3.68088841        1      -0.52696538      -0.24829030      -1.08081256
C       -0.43590361      -2.48727226      -0.17910755        1      -0.70610124       1.12979155      -1.03062695
C       -0.15731360      -5.85259247       4.38476229        1      -0.38458851      -0.44816228       1.34698818
H        1.75980937      -5.20327950       3.57774544        1      -1.21143453       0.71660792      -0.04844610
H        0.69143337      -3.75894833       4.07037449        1       0.03160666      -0.96356966       0.04808221
H       -0.66756463      -1.49663234       0.21331045        1       0.02328477      -0.00951468       0.47050724
H        0.52824837      -2.43123937      -0.63317853        1       0.99591703      -0.07243669      -0.10631195
H       -0.19415161      -5.77557945       5.49357557        1       0.34894321       0.19299555      -0.68747745
H       -1.21083260      -5.93775654       4.07744551        1       0.44038469       0.71826194      -0.21714279
H        0.25738040      -6.81286716       4.13540268        1       0.21972399      -0.47473186       0.05655929
H       -1.13804162      -2.68009830      -0.97011656        1      -0.49379797      -0.20897007      -0.40091468
22
Properties=species:S:1:pos:R:3:molID:I:1:forces:R:3 Nmols=2 Comp=DMC(1):EC(1) energy=-1147.456975797777 pbc="F F F"
C       -1.93471348       0.37855324      -3.00750709        0      -0.53546890       0.21469231      -1.08615759
O       -2.71915841       1.21758425      -2.18343115        0      -1.07406648      -0.89503105      -0.18214010
C       -3.30684257       0.46353623      -1.22403610        0       1.30191514       1.78800838       4.07982898
O       -2.69391441      -0.75441879      -1.20155609        0       0.40593242      -0.31966389      -1.19179175
C       -1.53046846      -0.87440377      -2.30679512        0      -3.66567054       0.95545464       3.06911778
H       -2.47627854       0.04089924      -3.92843103        0       0.03202124       0.72362186       0.48507194
H       -1.14461350       1.00834620      -3.24028301        0       1.77176033       1.06380742      -0.93392872
O       -3.88623452       0.99253821      -0.24473111        0       1.29897710      -2.57683766      -4.01428736
H       -1.75716853      -1.68778074      -2.92425799        0      -0.31131636      -1.49331312      -0.46617324
H       -0.67481750      -1.06052780      -1.70433414        0       0.77689972       0.54866778       0.26420599
C        2.59374547      -0.29182577       1.73479891        1       1.56200511      -1.72337509      -1.35981727
O        3.46378040      -1.11314476       2.16267586        1      -0.50282760       0.04446118       0.10594294
O        2.19946957       0.83803827       2.24540782        1       0.00687603       0.69943247       0.80686894
O        2.18323755      -0.46929675       0.54473889        1      -3.90675743       4.25344233       0.01771488
C        2.88175559       1.13131320       3.45184398        1      -2.57138598       0.14212873       1.99832408
C        2.29782343      -1.47642171      -0.34395912        1       3.70998900      -2.18006782       2.23143069
H        3.07264543       2.20725513       3.62830877        1      -0.95496705      -0.50310454      -0.19799094
H        2.29113555       0.56551325       4.30226803        1       0.89482216       1.52755169      -1.08176629
H        3.80586052       0.69748324       3.44364381        1       2.61140685      -1.31380497      -0.09694076
H        3.14162159      -2.18313074       1.29723585        1      -0.64245944      -0.01824858      -1.06072873
H        1.53509653      -1.57782173      -1.07678711        1      -0.23847250       0.08296693      -0.01461600
H        3.34151959      -1.33046174      -0.60611910        1       0.03078716      -1.02078898      -1.37216747
36
Properties=species:S:1:pos:R:3:molID:I:1:forces:R:3 Nmols=3 Comp=DMC(3) energy=-1770.0981973407588 pbc="F F F"
C        5.68455935       0.52069384       0.58932137        0       2.51512673       1.23508424       1.84620914
O        6.72072124       0.36316785       1.25598538        0      -2.77021106       0.19237352      -1.73837562
O        4.98819542       1.69243288       0.55045539        0      -0.07834373      -0.32058246       0.56819217
O        5.10072422      -0.32738814      -0.22366661        0       0.77337180      -0.14386335      -0.03311760
C        5.41881418       2.80262375       1.34068644        0       0.96189672       1.75214002      -2.30028699
C        5.71977139      -1.60008419      -0.36051661        0      -0.90767012      -0.73648448      -1.21524367
H        4.75651646       3.69552994       1.16821539        0      -0.07309155      -1.28557186       0.18542976
H        5.58889341       2.65509582       2.37115049        0      -0.10986782      -0.67179466       0.97682140
H        6.38197517       3.19228697       0.89436537        0      -0.41314546      -0.59176554       0.46305290
H        5.46579313      -1.97696519      -1.36777663        0       0.42325508       0.55340646       0.01385203
H        6.76315451      -1.75826216      -0.14296761        0       0.38819106       0.87113794       0.01140987
H        5.18208551      -2.27291322       0.25004539        0      -0.66337251      -0.84513711       1.22466520
C       -5.42839956      -0.01665314      -0.70757663        1       1.75685984       1.14937430       0.05834300
O       -4.70001364      -0.14066213       0.26897240        1      -1.83729044      -0.18555962      -1.83722491
O       -6.72367859      -0.23539814      -0.87176663        1       0.04100900      -0.84534667       0.59236012
O       -5.03091574       0.51976687      -1.90906060        1       0.34422156       0.12771162       1.01595561
C       -7.37517977      -1.01401412       0.13251738        1       0.10175060       1.03107510       0.55501046
C       -3.65878272       0.87244987      -2.02404451        1       1.45976305      -0.38862855      -1.07256871
H       -8.40441513      -1.06445909      -0.12378861        1      -0.81389305      -0.46499897      -0.82809368
H       -6.92200994      -1.98316813       0.28806940        1       0.13158691      -0.10063881      -0.05918213
H       -7.42650986      -0.44152415       1.05938840        1       0.62513603      -0.04536617       0.38590238
H       -3.37742972       1.21841788      -3.05086064        1      -1.23474928       0.94784938       0.74326233
H       -3.18385983       1.48461390      -1.22065258        1      -0.84445211      -0.40231119      -0.57901595
H       -3.07795262      -0.03622214      -2.14760756        1       0.23891645      -0.81393280       1.03827643
C       -0.18866672      -0.46190813       0.17186539        2      -0.42295964       0.28661429       0.44338423
O       -0.78935474       0.53267986      -0.22396262        2       1.39865518      -2.50740634       0.82157708
O        1.09685624      -0.53600413       0.60267138        2      -0.47172786      -0.08984857      -0.80770143
O       -0.65814769      -1.74067211       0.38539240        2      -1.75165407       2.01558345      -0.05900599
C        1.91302824       0.61903888       0.49774837        2      -1.01912495       0.55551256       0.58069709
C       -2.13678169      -1.86699319       0.50996941        2       0.76761514      -0.93755542      -2.34503126
H        1.33752728       1.41369283       0.96714538        2       0.08178153       0.48689452       0.18888106
H        2.83775735       0.48783186       1.03194833        2       0.13310203      -0.40349587       0.07890103
H        2.09301925       0.93536186      -0.50820762        2       0.19011930      -0.15588403      -0.75945404
H       -2.25050068      -2.98252106       0.52582139        2      -0.08109205       1.01051987       0.61379497
H       -2.58330369      -1.29692018       1.32821441        2       0.38598844      -0.30648301      -0.23517388
H       -2.63552070      -1.57544315      -0.48983061        2       0.77429924       0.02737822       1.46349760
23
Properties=species:S:1:pos:R:3:molID:I:1:forces:R:3 Nmols=2 Comp=EC(1):PC(1) energy=-1210.7043929646559 pbc="F F F"
C       -2.71655416      -0.20083316       1.97688019        0      -0.80984571       0.92454916       0.66726204
O       -1.92460918      -0.51825118       3.12369919        0      -1.38544573       0.69751546      -0.85525550
C       -2.68909621      -1.28357315       3.91883826        0       2.91930219      -1.55921577       1.14593600
O       -3.79735613      -1.70115614       3.42827225        0      -2.56396555       1.22758957      -2.98181666
C       -3.93089819      -1.15238714       2.01014519        0       1.10711156      -1.11901335       1.22149057
H       -3.12313724       0.81016988       2.01842618        0       0.24605364       0.52458551       0.43845099
H       -2.08016729      -0.22190715       1.12290120        0       0.36954622      -0.50912326      -0.75302571
O       -2.20466018      -1.79053712       4.88914728        0      -0.31756288       0.54935917       0.66568978
H       -4.93754339      -0.78790712       1.69858217        0       0.89052627      -0.08978143       0.85899214
H       -3.63022423      -1.99127519       1.40287817        0      -0.43761904      -0.64935456      -0.40191275
C        1.99300277       1.70388389      -3.69150686        1      -0.10051299       0.18746703       2.44871176
O        1.59015977       0.77238184      -2.58607578        1      -1.66734950       0.68385244      -1.99681331
C        2.60064673       0.43365386      -1.73446190        1      -1.96156080       2.52488723      -4.00100884
O        3.63509774       1.04353583      -2.19232178        1       3.99801854       0.48231481      -0.26409612
C        3.49761581       1.73362088      -3.43948984        1      -1.18326740      -1.82763308       0.15220172
C        1.64436078       1.28981483      -5.06994772        1      -0.89170962      -1.25503948      -1.26972143
H        1.58616078       2.70516396      -3.45858884        1      -0.37051764      -0.41772404       0.06026214
O        2.38931584      -0.19510315      -0.80427384        1       0.09676212      -2.30307753       3.34708000
H        3.88737988       1.24232888      -4.32638168        1       1.00388863      -0.53554679       0.37038410
H        3.91255975       2.67110181      -3.30699873        1       0.82360859       1.86740146       0.18785926
H        1.99277282       0.26568684      -5.30178976        1       0.21663140       0.46688339       0.20269363
H        0.55531877       1.19457185      -5.18661976        1       0.23040850       0.39673059       0.04490811
H        2.03762984       1.97431386      -5.84747791        1      -0.21250080      -0.26762654       0.71172810
27
Properties=species:S:1:pos:R:3:molID:I:1:forces:R:3 Nmols=2 Comp=DMC(1):EMC(1) energy=-1266.3318441514414 pbc="F F F"
C       -0.04029396       0.25836954      -3.21812057        0       0.10501479       0.51775218       1.04258114
O       -0.19258396       0.60822850      -2.06164956        0      -0.20420579      -0.80211766      -1.57710601
O        0.91262805       0.72985351      -4.02177048        0       0.35821426      -0.43226500      -0.07446620
O       -0.75061893      -0.61386746      -3.94684052        0      -0.06584005       0.30013280       0.26053469
C        1.95322502       1.52245355      -3.47447348        0      -0.62044850       2.19391187      -0.85770202
C       -1.98024094      -1.09013152      -3.40015054        0       0.67003765       0.73582771       0.44653119
H        2.14149499       2.32479453      -4.29687548        0      -0.17651586      -1.09961212       1.42511517
H        1.60815406       2.01190448      -2.53100061        0       0.26551091      -0.30483421      -0.65635325
H        2.86727905       0.98495352      -3.30608654        0       0.20652584      -0.48998130       0.03550589
H       -2.49108696      -1.64027941      -4.15240765        0      -0.35228525      -0.13282679      -0.74351683
H       -1.76961994      -1.74742651      -2.58282542        0       0.13148564      -0.49114633       0.64775484
H       -2.54033089      -0.24188147      -3.01696754        0      -0.30893433       0.03436770      -0.07015018
C        0.34433004      -0.10956647       3.30292535        1      -0.52278200      -0.75427952       0.13941611
O        1.51086700      -0.37731647       3.22271037        1      -0.13817203       0.40035220      -0.23195002
O       -0.58213097      -0.27707547       2.34589744        1       1.24796707       0.45169209      -0.05650069
O       -0.28880396       0.26074052       4.43031836        1       1.12254307       1.41568295       0.70004132
C       -0.13188596      -0.78746748       1.05965650        1       1.91528157       0.72081775       0.81157346
C        0.57436806       0.84408253       5.47100258        1      -0.25316332       0.49386924       0.76027387
C       -1.37073994      -1.03066742       0.33241847        1      -2.67136661      -0.59568832      -1.39837739
H        0.68578804      -0.15705746       0.51929647        1      -1.64970303      -0.26502893       0.92293474
H        0.40506905      -1.71898949       1.24472451        1      -0.01981530      -0.32809175       0.18270377
H        0.92128104       0.01673553       6.14052725        1      -0.52247479       0.69273480      -0.33291688
H        1.50718701       1.33428752       5.09897423        1      -0.82874720      -0.50011589      -0.30451518
H       -1.20094597      -1.70098245      -0.51646054        1       0.12690130       0.42051893      -0.06352436
H       -2.10782504      -1.58701348       0.94699544        1       0.55518122       0.22863766       0.11412514
H       -1.95667899      -0.13789947       0.00061346        1       1.00399349      -0.47482212       0.14488862
H        0.01346904       1.69109452       6.07651567        1       0.62579723      -1.93548795      -1.26690095
33
Properties=species:S:1:pos:R:3:molID:I:1:forces:R:3 Nmols=2 Comp=DEC(1):EMC(1) energy=-1437.3618071404164 pbc="F F F"
C       -1.46394324      -1.40026963       0.77403426        0      -3.31252918       1.00821852      -0.24189265
O       -0.29751527      -1.49565768       0.79969132        0       2.17750182      -1.24550483       0.36297841
O       -2.48314738      -2.26057863       1.10503328        0       1.31881922       1.06484203       0.02020151
O       -2.08994722      -0.28868064       0.37946528        0      -0.87603542       0.69438116      -0.22891212
C       -2.13505030      -3.61359954       1.46502924        0      -1.67661643       1.80950618      -0.74072092
C       -1.38078332       0.86247736      -0.19840671        0       0.05189528      -1.11238734       0.89570807
C       -3.40881228      -4.44064474       1.41257930        0      -1.03522454       1.23907810       2.07335274
H       -1.59360433      -3.92478657       0.62972426        0       1.61398415      -0.99380827      -1.08711978
H       -1.54922330      -3.57695675       2.36012030        0       0.02978202      -0.37158506       0.69082894
C       -2.31289840       2.04702044      -0.39117971        0      -1.48919366       1.77942456      -0.77585666
H       -0.46613428       0.99338233       0.42272830        0      -0.70710415       0.68361527       0.06182659
H       -0.95927030       0.48929936      -1.12191176        0      -0.18617781       0.16477806      -0.76682748
H       -1.79323924       2.87684345      -0.88007873        0       0.72652906      -0.25983494       0.18675191
H       -3.19007421       1.97964633      -1.12313068        0       1.10478088      -1.11955500       0.89532949
H       -2.80950618       2.57093835       0.47092128        0       0.85608131      -1.23054612      -0.11710325
H       -3.01053834      -5.36202049       1.69582129        0      -0.18565846      -1.84053648       0.89949780
H       -4.31619549      -4.08973885       2.04745126        0       1.90828878      -0.50095475      -0.63182933
H       -3.79781532      -4.56352663       0.44864628        0      -0.28279621       0.26954627      -1.50280541
C        2.31158066       1.49189234      -1.27018070        1      -0.24354616       0.84266556      -0.72362891
O        3.17014670       0.77384537      -1.72722673        1      -1.17635335       0.91155457       0.13148710
O        2.06148982       1.67411733       0.03333129        1       0.09336470      -0.38444705      -1.19510850
O        1.44579875       2.33337641      -1.98183775        1       1.72417016      -0.67096822       1.17759102
C        2.74939370       0.79503435       0.87542927        1       1.96753602       0.92042776       3.26598131
C        1.70342374       2.54929137      -3.39519668        1       0.45868775      -1.15119931       1.73296956
C        2.04057765       0.86616135       2.27566624        1      -2.19833017      -3.58121819       0.50726007
H        2.94845080      -0.19274864       0.50174528        1      -1.07337469      -0.68175606      -0.33365539
H        3.86549282       1.07379532       1.06076229        1      -1.35524268       0.61314251      -0.38852503
H        2.74276567       2.83565545      -3.58190179        1      -0.04611463      -0.15975449       0.12880863
H        1.50163174       1.54166031      -3.76019859        1      -0.17409348       0.53555538      -1.12764867
H        2.51784968       0.34319136       3.16632628        1       0.23036471       0.38958312      -1.59512988
H        1.73506570       1.79777336       2.72379422        1       0.10465352       0.51233253      -0.92327015
H        1.01709473       0.16970237       2.17550731        1       2.22648813       1.86253693       0.08140836
H        1.06305969       3.38346744      -3.58061266        1      -0.57453648       0.00286759      -0.73194738
20
Properties=species:S:1:pos:R:3:molID:I:1:forces:R:3 Nmols=2 Comp=DMC(1):VC(1) energy=-1122.404448589658 pbc="F F F"
C        2.05011272      -0.05907399       4.33935976        0       0.91231740      -1.14527088      -0.89398369
O        2.86190271      -0.89562899       4.71740961        0      -1.64340041       2.03836891      -0.19063239
O        1.66254675       1.12270701       4.85844994        0      -1.16197823      -1.31256135       0.29326483
O        1.38676679      -0.17026100       3.13922381        0      -0.42109747       3.45366763       2.67573327
C        2.22452068       1.50306499       6.14294195        0      -1.27470523       1.48460730      -0.28863794
C        1.65398276      -1.03581500       2.17731786        0       2.48381819      -5.31659499       0.65294591
H        1.76068175       2.51824093       6.55711794        0       0.71147701      -2.03931197      -1.29528386
H        2.10699773       0.75280899       6.91798401        0       0.17436745      -0.17327270      -0.22505582
H        3.16999578       1.63728404       5.70391178        0       2.08821591       0.58594751       1.30511177
H        1.77711582      -2.13645792       2.75034285        0      -0.74292527       1.76663597      -1.50524317
H        0.85112482      -1.01570499       1.49063385        0      -0.61582474      -0.21529803      -0.67530779
H        2.65575171      -1.03751695       1.68746984        0      -0.51083238       0.87425005       0.14470019
C       -3.37595010      -0.80146402      -4.70527029        1      -1.30687736      -2.81579251      -1.44594735
O       -2.78696513       0.29650900      -5.13920212        1       0.17425963       3.38734227      -1.27541493
C       -1.58874416       0.50366801      -4.49808598        1      -4.78057320      -5.28190858       1.21632001
O       -1.47847223      -0.60867500      -3.64843726        1       3.50308012       2.39927428      -0.81665519
C       -2.35627222      -1.43065202      -4.07536030        1      -4.50205290      -2.48787403       1.23446351
O       -0.93761122       1.41761100      -4.50354624        1       3.88060887       5.12499182      -0.44358028
H       -2.56495714      -2.23436689      -3.44250417        1       0.22148813      -1.51555917       0.62884804
H       -4.41737127      -1.20997703      -5.15031719        1       2.81063447       1.18835847       0.90435488
22
Properties=species:S:1:pos:R:3:molID:I:1:forces:R:3 Nmols=2 Comp=DMC(1):EC(1) energy=-1151.7038025415566 pbc="F F F"
C       -0.31780386      -1.52517247      -1.51296401        0      -5.30956896       4.86880820       3.87722876
O       -1.23265791      -1.01568651      -0.78747404        0       2.79577228      -2.15719868      -3.18435977
O        0.15131213      -1.11318052      -2.63139701        0       0.85091930       0.18577390      -2.62277188
O        0.57176512      -2.30218649      -1.13584304        0       3.47857207      -3.74793710       1.72723795
C       -0.29505688       0.00724250      -3.25496912        0      -1.74263458       1.53987215      -2.34349988
C        0.48928913      -2.85405540       0.16389795        0      -0.96316597      -1.10847426      -0.83969085
H       -1.28206992      -0.22101851      -3.81672907        0       1.07505493       0.54312708       0.87032160
H       -0.43706888       0.86359447      -2.57085896        0      -0.09784857      -0.39909034      -0.22503889