77
Properties=species:S:1:pos:R:3:molID:I:1:forces:R:3 Nmols=6 Comp=DEC(1):DMC(2):EC(2):EMC(1) energy=-3736.3740224060243 pbc="F F F"
C       -1.83385191       1.12909904      -5.27613973        0       1.02959448       0.61907182       5.68601372
O       -1.84544096       1.46962502      -4.08675813        0      -1.20750204       0.08772774      -1.15598212
O       -0.81386599       1.47580007      -5.98193979        0       2.01689956       0.27860484      -3.29797701
O       -2.59086690       0.21176207      -5.77056789        0      -0.29005722      -0.03327636      -2.14867097
C        0.20941499       2.36939910      -5.45872688        0      -2.81601265       2.52850560      -0.99897163
C       -3.81860003      -0.19891795      -5.26081276        0      -2.56586437       2.47004469      -3.32518665
H        0.80830398       2.90585497      -6.22674083        0      -0.88114633      -0.70731893      -0.37378023
H       -0.43291500       3.20440104      -4.97875213        0       1.46681418      -1.24552756       0.18098206
H        0.91850897       1.85523894      -4.91552973        0       0.82813469      -0.98145357       1.80103961
H       -4.38113103      -0.59572596      -6.14403677        0       0.47573380       0.15497172       0.11710986
H       -3.74950680      -0.95236996      -4.64341974        0       0.91665577      -3.95325191       3.53446760
H       -4.57596097       0.47631904      -4.82629776        0       1.03860379       0.74459408       0.02012562
C        0.93029276      -1.72367896       4.76980173        1      -1.74831001       2.71838374      -0.26623187
O        1.70018986      -2.79686798       5.02000247        1       1.15156227      -0.98012436       0.67645808
C        2.70069674      -2.49618496       5.82866775        1       1.10940133      -0.24229440       2.31231832
O        2.56099371      -1.10588099       6.34901153        1      -1.19252841      -2.40516483      -1.72937906
C        1.28101782      -0.60152198       5.83027040        1       0.31149757      -1.07569155       0.35988397
H        1.20347885      -1.30759300       3.78276264        1      -0.38904691      -0.20465061       0.12619050
H       -0.15098518      -1.93216814       4.81819736        1       0.31749841      -0.30477227      -0.12135674
O        3.49970678      -3.34180202       6.20364343        1      -1.54097855       2.93050141      -0.80346506
H        1.38214985       0.33114596       5.23239957        1       0.25001172      -0.40560600       1.01853958
H        0.49058083      -0.50950404       6.69036447        1       1.49416321      -0.18327089      -1.34776835
C       -4.60754379       2.63073434      -1.18642231        2      -1.01850583      -1.28398576       0.93208950
O       -3.86599859       3.56218614      -0.95730635        2      -1.78300908      -2.32857366      -0.49946606
O       -5.11451897       1.62768712      -0.18845236        2      -0.09619491       2.30904579      -3.86693016
O       -5.24712166       2.21790232      -2.31521937        2       1.76243905       0.81817628       0.50147372
C       -4.60003265       1.74823417       1.06525466        2      -0.54455140       0.81800392       0.90214804
C       -5.03925499       2.96900930      -3.51630327        2      -1.03051362       1.31378401      -0.42805032
H       -4.77795299       0.83546521       1.58654371        2      -0.25523011      -0.56195841       0.44333861
H       -3.59713587       1.89867629       0.88943664        2       2.85972557       0.26797260       0.48290795
H       -4.96085295       2.62628331       1.62135462        2      -0.33649371      -0.19684846      -0.02402265
H       -5.65068277       2.53123226      -4.35545226        2       0.09575783       0.48845318       1.26343412
H       -5.26330265       4.03460016      -3.28051325        2      -0.87552976      -0.46243190      -0.23278338
H       -4.08317455       3.16231622      -3.97079154        2       1.26055594      -1.18164772       0.53884482
C        3.70112078       3.70429236       0.08967109        3       6.14293191       0.35214122      -1.51210641
O        5.03244584       3.73635251      -0.11905291        3      -6.92887708      -1.43750973       1.31100894
O        2.81571381       2.67851359       0.19525609        3       1.66390106       1.16198043      -1.00734296
O        3.08117788       4.85766751       0.07332309        3      -1.66630728      -0.20065465       1.31226121
C        3.26174681       1.36178142      -0.17558291        3       0.59465099       0.12323138      -0.77691485
C        3.68094962       6.17464835       0.18470508        3       1.91684030      -3.12331636       2.26812461
C        2.17372887       0.36188954       0.14077209        3      -1.43503746      -2.01756698       0.57948848
H        3.70850890       1.24178654      -1.19944086        3      -1.00868499       0.74345801       0.19297441
H        4.13883154       1.14406353       0.45944009        3      -1.02310209       1.19362076      -1.04063994
H        4.36655466       6.29060132       1.11052105        3      -1.00040243      -0.31120139      -1.55451840
H        4.13625376       6.21272236      -0.72750893        3       2.14068821       0.89209595      -2.10317689
H        2.44238679      -0.67672247      -0.00996991        3       1.20527760      -0.42897747      -0.77560145
H        2.12067168       0.27920658       1.24076614        3      -1.10427041       0.99790092      -0.43924277
H        1.15490680       0.20842052      -0.37262192        3       1.26522907       1.87620791       0.72242157
H        2.87197583       6.77449852       0.18342509        3      -2.52476443       2.14781188       0.45520387
C        5.10740771      -0.50345900       1.02780885        4      -0.49815210       1.46976580      -4.65374473
O        4.35471501       0.31792398       1.84430677        4       0.40884867       1.67887909       2.27666790
C        3.66636004      -0.37496701       2.74321681        4       0.34229916      -0.23857040       1.73773896
O        4.15639367      -1.62193796       2.71895176        4       1.53034217      -1.26844961      -0.39244277
C        5.33145490      -1.71580001       1.74970180        4       0.90952222      -0.13858505       3.50123764
H        4.34884992      -0.76027503       0.20811480        4       1.07514810       0.02084693       0.08818540
H        5.97438874       0.04610899       0.46399480        4      -1.21604109      -0.83454476       1.55902438
O        2.83755984       0.03950299       3.53108698        4       1.58914849      -0.70103314      -2.01325369
H        5.30468001      -2.59577712       1.21560675        4      -0.85282676      -1.93000020      -1.13884467
H        6.40798774      -1.73028704       2.11489779        4      -1.31908468       0.12377723       1.16108382
C       -2.68539130      -3.23184506      -1.38702589        5       0.28099008      -5.19269414       0.77474700
O       -2.17742836      -2.62260405      -2.23395889        5       0.07953020       1.65208267      -3.20589595
O       -2.49298536      -3.04796116      -0.13055485        5      -1.27862061       0.11068242       2.28028125
O       -3.14275038      -4.62926118      -1.48948389        5      -1.46778422       3.51463870       2.15185971
C       -2.24853050      -1.72193925       0.28131015        5      -0.42978970       1.92735961       2.53501717
C       -3.28168141      -5.30291716      -2.69633477        5       3.44818522       1.34199323      -2.44017274
C       -2.26212441      -1.61312525       1.89669413        5      -1.18962547       0.07835422       0.91404969
H       -1.23248433      -1.42077510      -0.08426886        5      -0.91107886       0.10799921       0.24870412
H       -3.07519137      -1.00592212      -0.00700385        5       0.94818593      -0.73427308      -0.44007905
C       -3.71914732      -6.73270623      -2.45487183        5      -6.77914507       1.80709468      -1.95928242
H       -3.72624027      -4.69143121      -3.60921686        5      -0.50182803      -1.19526779       2.01373096
H       -2.20245134      -5.10441129      -2.97845786        5      -0.08822039      -1.63348192      -1.02641104
H       -4.31953823      -7.13499419      -3.40754193        5       2.08031550       0.51017609       1.33210564
H       -3.22057950      -7.50558822      -1.96553295        5       1.03419897      -0.26437895       0.56371640
H       -4.82099544      -6.49050919      -1.89762276        5       2.74900201      -0.84455066      -0.30836398
H       -2.01573240      -0.65080420       2.42909104        5      -0.11062673      -0.40113888      -1.63951679
H       -3.19746839      -1.92080514       2.54010922        5       1.09102237       0.26918165      -2.14227607
H       -1.52192747      -2.27279417       2.24705607        5       1.02443738      -1.01507708       0.31285098
77
Properties=species:S:1:pos:R:3:molID:I:1:forces:R:3 Nmols=6 Comp=DEC(1):DMC(2):EC(2):EMC(1) energy=-3736.7883957229565 pbc="F F F"
C       -1.89711549       1.16727947      -5.46392165        0       1.03417434       0.64229694       5.68754883
O       -1.90870454       1.50780545      -4.27454005        0      -1.21007170       0.08009893      -1.15768507
O       -0.87712957       1.51398050      -6.16972171        0       2.01469000       0.27615137      -3.29540703
O       -2.65413048       0.24994250      -5.95834981        0      -0.29644825      -0.04362850      -2.14777206
C        0.14615141       2.40757953      -5.64650880        0      -2.81610986       2.52936346      -0.99944288
C       -3.88186361      -0.16073752      -5.44859468        0      -2.55990391       2.47480275      -3.32751109
H        0.74504040       2.94403540      -6.41452275        0      -0.88129583      -0.70746307      -0.37356850
H       -0.49617858       3.24258147      -5.16653405        0       1.46545428      -1.24576259       0.17931726
H        0.85524539       1.89341937      -5.10331165        0       0.82886775      -0.98244941       1.80026994
H       -4.44439461      -0.55754553      -6.33181869        0       0.47505532       0.15666335       0.12057183
H       -3.81277038      -0.91418953      -4.83120166        0       0.91013535      -3.95406883       3.53261887
H       -4.63922455       0.51449947      -5.01407968        0       1.03096517       0.76569732       0.02016494
C        1.00515537      -1.79498071       4.97058436        1      -1.69730243       2.74565391      -0.29315069
O        1.77505247      -2.86816973       5.22078510        1       1.14326411      -0.97784183       0.67466890
C        2.77555935      -2.56748671       6.02945038        1       1.13430319      -0.27200584       2.31958655
O        2.63585632      -1.17718274       6.54979416        1      -1.19286545      -2.39175840      -1.73393237
C        1.35588043      -0.67282373       6.03105303        1       0.34504904      -1.07263450       0.33627368
H        1.27834146      -1.37889475       3.98354527        1      -0.33408586      -0.17371448       0.09388850
H       -0.07612257      -2.00346989       5.01897999        1       0.32267110      -0.29972488      -0.13452649
O        3.57456939      -3.41310377       6.40442606        1      -1.55646058       2.94400502      -0.80606253
H        1.45701246       0.25984421       5.43318220        1       0.27043318      -0.39215879       0.98928210
H        0.56544344      -0.58080579       6.89114710        1       1.49673740      -0.17296021      -1.35196795
C       -4.77557771       2.71802684      -1.22835401        2      -1.04784934      -1.30297749       0.94220692
O       -4.03403251       3.64947864      -0.99923805        2      -1.76540393      -2.31833666      -0.50141910
O       -5.28255289       1.71497962      -0.23038406        2      -0.09334261       2.31892183      -3.86738535
O       -5.41515558       2.30519482      -2.35715107        2       1.76895974       0.82049200       0.50555640
C       -4.76806657       1.83552667       1.02332296        2      -0.54572466       0.81670111       0.89794072
C       -5.20728891       3.05630180      -3.55823497        2      -1.02764991       1.30017228      -0.43608376
H       -4.94598691       0.92275771       1.54461201        2      -0.25433062      -0.56267561       0.44157773
H       -3.76516979       1.98596879       0.84750494        2       2.85842209       0.26605715       0.48321225
H       -5.12888687       2.71357581       1.57942292        2      -0.33580343      -0.19705958      -0.02326536
H       -5.81871669       2.61852476      -4.39738396        2       0.10471970       0.47691273       1.26626573
H       -5.43133657       4.12189266      -3.32244495        2      -0.87542386      -0.46406332      -0.23487778
H       -4.25120847       3.24960872      -4.01272324        2       1.26266781      -1.18186972       0.53010798
C        3.82155395       3.82044001       0.09169893        3       6.18824206       0.37544884      -1.52086652
O        5.15287901       3.85250016      -0.11702507        3      -6.95363293      -1.42788628       1.31581458
O        2.93614698       2.79466124       0.19728393        3       1.68188640       1.09255115      -1.00222777
O        3.20161105       4.97381516       0.07535093        3      -1.67002593      -0.20543664       1.31197032
C        3.38217998       1.47792907      -0.17355507        3       0.67819495      -0.03581963      -0.48813928
C        3.80138279       6.29079600       0.18673292        3       1.91849864      -3.12119283       2.26816330
C        2.29416204       0.47803719       0.14279993        3      -1.39047770      -2.04712162       0.62452095
H        3.82894207       1.35793419      -1.19741302        3      -0.97659459       0.72833354       0.24459937
H        4.25926471       1.26021118       0.46146793        3      -0.71633962       0.68234498      -0.49529172
H        4.48698783       6.40674897       1.11254889        3      -1.00051296      -0.31163228      -1.55484392
H        4.25668693       6.32887001      -0.72548109        3       2.14068852       0.89196181      -2.10331551
H        2.56281996      -0.56057482      -0.00794207        3       1.24390645      -0.40572584      -0.76487546
H        2.24110485       0.39535423       1.24279398        3      -1.02699969       0.98820189      -0.38539824
H        1.27533997       0.32456817      -0.37059408        3       1.27204260       1.88137416       0.72219229
H        2.99240900       6.89064617       0.18545293        3      -2.52497419       2.14805561       0.45510378
C        5.25752347      -0.52617391       1.10819517        4      -0.63601968       1.65390108      -4.70860717
O        4.50483077       0.29520907       1.92469309        4       0.08577864       2.06233345       1.50271436
C        3.81647580      -0.39768192       2.82360313        4       0.22580973      -0.19006452       1.70375582
O        4.30650943      -1.64465287       2.79933808        4       1.54838407      -1.26514907      -0.37512502
C        5.48157066      -1.73851492       1.83008812        4       0.89119243      -0.13448714       3.47684443
H        4.49896568      -0.78298994       0.28850112        4       0.99284618       0.11988839       0.06153695
H        6.12450450       0.02339408       0.54438112        4      -1.24942644      -0.82168636       1.55993865
O        2.98767560       0.01678808       3.61147330        4       1.48889996      -0.79513266      -1.97674965
H        5.45479577      -2.61849203       1.29599307        4      -0.85191810      -1.93119661      -1.14022735
H        6.55810350      -1.75300195       2.19528411        4      -1.31732745       0.12922341       1.15811765
C       -2.78287020      -3.35980008      -1.42325358        5       0.28304854      -5.19893127       0.76826664
O       -2.27490726      -2.75055907      -2.27018658        5       0.08030206       1.65697153      -3.20189547
O       -2.59046426      -3.17591618      -0.16678254        5      -1.28106139       0.11238341       2.28366437
O       -3.24022928      -4.75721620      -1.52571158        5      -1.46750798       3.51537169       2.15406455
C       -2.34600940      -1.84989427       0.24508246        5      -0.42266290       1.92341304       2.53805747
C       -3.37916031      -5.43087218      -2.73256246        5       3.44796910       1.34215363      -2.44213184
C       -2.35960331      -1.74108027       1.86046644        5      -1.19149387       0.07630899       0.91356473
H       -1.32996323      -1.54873012      -0.12049655        5      -0.90876500       0.10763579       0.24693891
H       -3.17267027      -1.13387714      -0.04323154        5       0.94468653      -0.73184401      -0.43718183
C       -3.81662622      -6.86066125      -2.49109952        5      -6.77895655       1.80713916      -1.95899635
H       -3.82371917      -4.81938623      -3.64544455        5      -0.50118982      -1.19536766       2.01467325
H       -2.29993024      -5.23236631      -3.01468555        5      -0.08843842      -1.63338220      -1.02604919
H       -4.41701713      -7.26294921      -3.44376962        5       2.08027074       0.51004226       1.33198034
H       -3.31805840      -7.63354324      -2.00176064        5       1.03419936      -0.26462004       0.56371449
H       -4.91847434      -6.61846421      -1.93385045        5       2.74863311      -0.84474950      -0.30817321
H       -2.11321130      -0.77875922       2.39286335        5      -0.11353931      -0.40154327      -1.63944844
H       -3.29494729      -2.04876016       2.50388153        5       1.09183949       0.27032861      -2.14189991
H       -1.61940637      -2.40074919       2.21082838        5       1.02404762      -1.01323340       0.31424551
77
Properties=species:S:1:pos:R:3:molID:I:1:forces:R:3 Nmols=6 Comp=DEC(1):DMC(2):EC(2):EMC(1) energy=-3737.021865691919 pbc="F F F"
C       -1.96262001       1.20681233      -5.65835523        0       1.03851624       0.66221390       5.68908061
O       -1.97420906       1.54733831      -4.46897363        0      -1.20946808       0.07100496      -1.15907836
O       -0.94263409       1.55351336      -6.36415529        0       2.01290997       0.27396964      -3.29344334
O       -2.71963500       0.28947536      -6.15278339        0      -0.30159765      -0.05314883      -2.14725314
C        0.08064689       2.44711239      -5.84094238        0      -2.81622448       2.53009956      -0.99978784
C       -3.94736813      -0.12120466      -5.64302826        0      -2.55504151       2.47800067      -3.32979457
H        0.67953588       2.98356826      -6.60895633        0      -0.88139577      -0.70758302      -0.37341126
H       -0.56168310       3.28211433      -5.36096763        0       1.46423830      -1.24599329       0.17795580
H        0.78974087       1.93295223      -5.29774523        0       0.82949899      -0.98327880       1.79972455
H       -4.50989913      -0.51801267      -6.52625227        0       0.47447718       0.15796867       0.12352187
H       -3.87827490      -0.87465667      -5.02563524        0       0.90480459      -3.95479832       3.53049449
H       -4.70472907       0.55403233      -5.20851326        0       1.02573438       0.77919290       0.01907048
C        1.08266978      -1.86880812       5.17847916        1      -1.66313357       2.75992346      -0.31128491
O        1.85256688      -2.94199714       5.42867990        1       1.13539566      -0.97400846       0.67253587
C        2.85307376      -2.64131412       6.23734518        1       1.15659043      -0.30093433       2.32735126
O        2.71337073      -1.25101015       6.75768896        1      -1.19377946      -2.37883249      -1.73622582
C        1.43339484      -0.74665114       6.23894783        1       0.36516840      -1.07149722       0.32670531
H        1.35585587      -1.45272216       4.19144007        1      -0.30243277      -0.15724278       0.06768680
H        0.00139184      -2.07729730       5.22687479        1       0.32700463      -0.29607513      -0.14288896
O        3.65208380      -3.48693118       6.61232086        1      -1.57030206       2.95641442      -0.80843194
H        1.53452687       0.18601680       5.64107700        1       0.27679960      -0.37921436       0.97708239
H        0.64295785      -0.65463320       7.09904190        1       1.49852136      -0.16575010      -1.35493704
C       -4.94956378       2.80841144      -1.27177102        2      -1.07401586      -1.31968885       0.95155108
O       -4.20801858       3.73986324      -1.04265506        2      -1.74970486      -2.30923660      -0.50326684
O       -5.45653896       1.80536422      -0.27380107        2      -0.09077864       2.32790360      -3.86877116
O       -5.58914165       2.39557942      -2.40056808        2       1.77470014       0.82269923       0.50924502
C       -4.94205264       1.92591127       0.97990595        2      -0.54752447       0.81656098       0.89545068
C       -5.38127498       3.14668640      -3.60165198        2      -1.02786744       1.29245765      -0.44277166
H       -5.11997298       1.01314231       1.50119500        2      -0.25410918      -0.56232001       0.44001040
H       -3.93915586       2.07635339       0.80408793        2       2.85708866       0.26517641       0.48375046
H       -5.30287294       2.80396041       1.53600591        2      -0.33538500      -0.19692486      -0.02270794
H       -5.99270276       2.70890936      -4.44080097        2       0.11211776       0.46948682       1.26886542
H       -5.60532264       4.21227726      -3.36586196        2      -0.87531455      -0.46489061      -0.23589783
H       -4.42519454       3.33999332      -4.05614025        2       1.26205243      -1.18016789       0.52262606
C        3.94625314       3.94070187       0.09379861        3       6.22032898       0.39317060      -1.52843087
O        5.27757820       3.97276202      -0.11492539        3      -6.97113526      -1.42134370       1.31997793
O        3.06084617       2.91492310       0.19938361        3       1.69355569       1.04744216      -0.99561497
O        3.32631024       5.09407702       0.07745061        3      -1.67351528      -0.20765490       1.31201334
C        3.50687917       1.59819093      -0.17145539        3       0.71499412      -0.14177227      -0.31930632
C        3.92608198       6.41105786       0.18883260        3       1.91958826      -3.11977934       2.26805620
C        2.41886123       0.59829905       0.14489961        3      -1.34916325      -2.07537777       0.65804238
H        3.95364126       1.47819605      -1.19531334        3      -0.95534109       0.71979785       0.27771659
H        4.38396390       1.38047304       0.46356761        3      -0.51194348       0.33441906      -0.16138919
H        4.61168702       6.52701083       1.11464857        3      -1.00054933      -0.31196594      -1.55504267
H        4.38138612       6.44913187      -0.72338141        3       2.14069397       0.89181783      -2.10344022
H        2.68751915      -0.44031296      -0.00584239        3       1.28079167      -0.38752190      -0.75284121
H        2.36580404       0.51561609       1.24489366        3      -0.96367880       0.97175343      -0.34504761
H        1.40003916       0.44483003      -0.36849440        3       1.27598482       1.88530790       0.72212091
H        3.11710819       7.01090803       0.18755261        3      -2.52508358       2.14828289       0.45501049
C        5.41295666      -0.54969343       1.19142895        4      -0.73324589       1.77715425      -4.74133128
O        4.66026396       0.27168955       2.00792687        4      -0.12331098       2.33188780       1.02614724
C        3.97190899      -0.42120144       2.90683691        4       0.13541148      -0.14332414       1.67967297
O        4.46194262      -1.66817239       2.88257186        4       1.56684215      -1.27514632      -0.36501286
C        5.63700385      -1.76203444       1.91332190        4       0.87730163      -0.13323083       3.46051305
H        4.65439887      -0.80650946       0.37173490        4       0.93291220       0.18469582       0.03959467
H        6.27993769      -0.00012544       0.62761490        4      -1.27437374      -0.81123692       1.55809601
O        3.14310879      -0.00673144       3.69470708        4       1.43921026      -0.85354872      -1.95427231
H        5.61022896      -2.64201155       1.37922685        4      -0.85099974      -1.93215514      -1.14147965
H        6.71353669      -1.77652147       2.27851789        4      -1.31569757       0.13345718       1.15552503
C       -2.88380203      -3.49228756      -1.46076453        5       0.28482866      -5.20419845       0.76294035
O       -2.37583909      -2.88304655      -2.30769753        5       0.08123546       1.66098584      -3.19802017
O       -2.69139609      -3.30840366      -0.20429349        5      -1.28312320       0.11345718       2.28634834
O       -3.34116111      -4.88970368      -1.56322253        5      -1.46733764       3.51593198       2.15611154
C       -2.44694123      -1.98238175       0.20757151        5      -0.41728147       1.91952133       2.54045665
C       -3.48009214      -5.56335966      -2.77007341        5       3.44774810       1.34232376      -2.44410685
C       -2.46053514      -1.87356775       1.82295549        5      -1.19312371       0.07414073       0.91223715
H       -1.43089506      -1.68121760      -0.15800750        5      -0.90673828       0.10745411       0.24590384
H       -3.27360210      -1.26636462      -0.08074249        5       0.94260568      -0.73154703      -0.43527880
C       -3.91755805      -6.99314873      -2.52861047        5      -6.77881346       1.80715820      -1.95873113
H       -3.92465100      -4.95187371      -3.68295550        5      -0.50056589      -1.19547438       2.01550317
H       -2.40086207      -5.36485379      -3.05219650        5      -0.08867190      -1.63329830      -1.02575936
H       -4.51794896      -7.39543669      -3.48128057        5       2.08025008       0.50994388       1.33188019
H       -3.41899023      -7.76603072      -2.03927159        5       1.03418483      -0.26480325       0.56370314
H       -5.01940617      -6.75095169      -1.97136140        5       2.74833197      -0.84493058      -0.30800797
H       -2.21414313      -0.91124670       2.35535240        5      -0.11580368      -0.40256639      -1.63955809
H       -3.39587912      -2.18124764       2.46637058        5       1.09233609       0.27115533      -2.14147281
H       -1.72033820      -2.53323667       2.17331743        5       1.02281776      -1.01186975       0.31381727
77
Properties=species:S:1:pos:R:3:molID:I:1:forces:R:3 Nmols=6 Comp=DEC(1):DMC(2):EC(2):EMC(1) energy=-3737.137069662067 pbc="F F F"
C       -2.03044485       1.24774554      -5.85967609        0       1.04232757       0.67940995       5.69062412
O       -2.04203390       1.58827152      -4.67029449        0      -1.20703168       0.06144461      -1.16037010
O       -1.01045893       1.59444657      -6.56547615        0       2.01146991       0.27200838      -3.29196237
O       -2.78745984       0.33040857      -6.35410425        0      -0.30560824      -0.06184982      -2.14704385
C        0.01282205       2.48804560      -6.04226324        0      -2.81632407       2.53078372      -1.00002299
C       -4.01519297      -0.08027145      -5.84434912        0      -2.55116009       2.48021896      -3.33199754
H        0.61171104       3.02450147      -6.81027719        0      -0.88146864      -0.70768949      -0.37329318
H       -0.62950794       3.32304754      -5.56228849        0       1.46316414      -1.24623036       0.17684253
H        0.72191603       1.97388544      -5.49906609        0       0.83004763      -0.98396655       1.79935372
H       -4.57772397      -0.47707946      -6.72757313        0       0.47397458       0.15895960       0.12599242
H       -3.94609974      -0.83372346      -5.22695610        0       0.90054895      -3.95543901       3.52830392
H       -4.77255391       0.59496554      -5.40983412        0       1.02234419       0.78741520       0.01708899
C        1.16292992      -1.94525067       5.39373806        1      -1.64145878       2.76563999      -0.32287367
O        1.93282702      -3.01843969       5.64393880        1       1.12810248      -0.96932182       0.67010588
C        2.93333390      -2.71775667       6.45260408        1       1.17634476      -0.32893943       2.33543277
O        2.79363087      -1.32745270       6.97294786        1      -1.19483835      -2.36621028      -1.73779684
C        1.51365498      -0.82309369       6.45420673        1       0.37690479      -1.07184674       0.32497259
H        1.43611601      -1.52916471       4.40669897        1      -0.28719817      -0.15099774       0.04722966
H        0.08165198      -2.15373985       5.44213369        1       0.33028044      -0.29338904      -0.14842130
O        3.73234394      -3.56337373       6.82757976        1      -1.58267980       2.96796977      -0.81074167
H        1.61478701       0.10957425       5.85633590        1       0.27494170      -0.36774324       0.97540033
H        0.72321799      -0.73107575       7.31430080        1       1.49988038      -0.16057580      -1.35739717
C       -5.12971282       2.90199766      -1.31672595        2      -1.09715659      -1.33433576       0.96020051
O       -4.38816762       3.83344946      -1.08760999        2      -1.73581275      -2.30126271      -0.50506695
O       -5.63668800       1.89895044      -0.31875600        2      -0.08837725       2.33596916      -3.87069159
O       -5.76929069       2.48916564      -2.44552301        2       1.77979221       0.82473530       0.51248535
C       -5.12220168       2.01949749       0.93495102        2      -0.54949731       0.81686486       0.89401766