12
Properties=species:S:1:pos:R:3:molID:I:1:momenta:R:3:forces:R:3 Nmols=1 Comp=DMC(1) energy=-589.9421523689788 free_energy=-589.9421523689788 pbc="F F F"
C       -0.06354920       0.02615914       0.03273994        0      -1.30685201       0.51079507       0.10015636       0.43864436      -0.17155114      -1.67898476
O       -1.09745824      -0.56171083      -0.33384407        0       0.04546114       0.13601210       0.13456596       0.32622087       0.65469323       2.77516387
O        0.59339279       0.04178514       1.16893291        0      -0.01703171      -0.19684752      -0.20516827      -0.66685041       0.20453444       0.36015183
O        0.70731479       0.58054012      -0.92796504        0       0.62510549       0.59267887      -1.07478589      -0.50167130      -0.43032997       0.46560414
C       -0.18480919      -0.38314587       2.27627182        0       0.44146776      -0.17466544      -0.04402239      -0.51599969       0.88445153       2.67034054
C        0.11790480       0.31317315      -2.18905210        0      -0.21785355      -0.72575989       1.00233038      -2.17182795       1.21932266      -2.70297288
H        0.50081283      -0.52887988       3.16355896        0       0.01821078      -0.24746806       0.05358109      -0.90410635       0.06367501      -1.39272140
H       -0.99130619       0.37122315       2.57026887        0      -0.05838950       0.01021122      -0.20095075       1.30191989      -0.53600303      -0.29767529
H       -0.79898220      -1.19689691       1.93909299        0       0.04043247       0.09263640       0.05385044       0.14873862      -0.81252767      -0.69127219
H        0.82173383       0.39293513      -3.04121518        0       0.42299085       0.19758233       0.24957422      -0.22573618      -0.12063632       1.19676702
H       -0.51975018      -0.63449883      -2.23208618        0       0.01717020      -0.16362675      -0.09379371       1.11617558       0.41121717      -0.97776620
H       -0.68493521       1.15580308      -2.35394812        0      -0.01071193      -0.03154833       0.02466256       1.65449256      -1.36684590       0.27336531
12
Properties=species:S:1:pos:R:3:molID:I:1:momenta:R:3:forces:R:3 Nmols=1 Comp=DMC(1) energy=-589.7890852933464 free_energy=-589.7890852933464 pbc="F F F"
C       -0.09073801       0.08486868       0.00038123        0       0.95107394       0.81014016      -0.52946479       0.79940587      -1.58550331       0.87009888
O       -1.10994808      -0.52690528      -0.30875874        0      -0.93370844       0.52229192       0.62393938      -0.83884062      -0.16556591      -0.00159091
O        0.59210976       0.04368388       1.15165176        0      -0.04725850       0.63878957       0.01759999       0.22956542       1.44696994       1.31191631
O        0.70117732       0.56412747      -0.93753481        0      -0.48895826      -0.90679140       1.02826046      -0.88267100      -0.48362903       0.35946209
C       -0.15246685      -0.41005908       2.32546932        0       0.26357680      -0.04582900      -0.04750334       0.15692374       1.40035329      -1.51140970
C        0.07747044       0.25970562      -2.21321743        0      -0.14295035      -0.31368797      -1.21506385       0.20291302       2.24111660      -0.92736885
H        0.43233261      -0.73078925       3.18211641        0       0.01280623      -0.15334764       0.11645395      -0.14173309       0.26135030      -0.64533917
H       -0.87418421       0.41279236       2.62814023        0       0.01642422       0.01359967       0.27374712       0.93329089      -1.57029810      -0.48905733
H       -0.51969920      -1.23449815       1.72462614        0       0.16304428       0.01235347      -0.03906967      -1.25849635      -0.55725225       0.71179099
H        1.00979609       0.48625954      -2.75441633        0      -0.01792866      -0.17733031      -0.16470031      -0.38969749      -0.09958552      -1.11931695
H       -0.27616040      -0.77163874      -2.50762978        0       0.32621476      -0.24808843       0.00552571      -0.15767664       1.12529826       1.43577591
H       -0.68079404       1.15449403      -2.38197422        0      -0.10233602      -0.15210004      -0.06972465       1.34701625      -2.01325426       0.00503874
12
Properties=species:S:1:pos:R:3:molID:I:1:momenta:R:3:forces:R:3 Nmols=1 Comp=DMC(1) energy=-590.0052052871304 free_energy=-590.0052052871304 pbc="F F F"
C       -0.06892345       0.06257864       0.02780644        0      -0.93586528      -1.10499566       0.68545688      -0.32937312       0.03564112      -0.41067954
O       -1.14038980      -0.48061037      -0.27065604        0       0.16595799       1.03318136       1.01862254       0.51342918       0.15917307       2.67830459
O        0.61034221       0.12479128       1.18597899        0       0.39505777       1.90625011       0.70787700      -0.82940328      -0.14668980      -0.80640569
O        0.66229467       0.52628541      -0.93205745        0       0.12521005       0.10899943      -1.32437860       0.49160983       0.90840757      -2.70109713
C       -0.09617859      -0.44580986       2.25959324        0       0.06483765      -1.30936962      -1.21757712      -1.30327482      -0.17159620       1.35613502
C        0.11464787       0.25191988      -2.28584962        0       0.64392317      -0.41185974       0.35026791      -2.50280967      -0.38051402       1.93986408
H        0.62435891      -0.78488207       3.03744474        0       0.45054749      -0.02657209      -0.14989479      -0.70329279       0.40742958      -0.87932233
H       -0.87524069       0.26075302       2.65973579        0      -0.07851831       0.07806691      -0.16777565       1.12338068      -0.18918098      -0.26974713
H       -0.78413371      -1.23518225       1.88608286        0      -0.25368527       0.11962909       0.22898371       0.38844958      -0.36928513      -0.07496015
H        0.81840072       0.32829145      -3.09013528        0      -0.27946771      -0.00047444      -0.18918473       0.30089415       0.07923256       0.52077730
H       -0.28238046      -0.79653868      -2.11679682        0      -0.19096211      -0.12514845       0.17361885       0.62476724       0.65950481      -2.14386362
H       -0.85168742       0.86695595      -2.52944214        0      -0.10703546      -0.26770690      -0.11601599       2.22562304      -0.99212258       0.79099462
12
Properties=species:S:1:pos:R:3:molID:I:1:momenta:R:3:forces:R:3 Nmols=1 Comp=DMC(1) energy=-589.8570005635005 free_energy=-589.8570005635005 pbc="F F F"
C       -0.03722818       0.02692006       0.05437714        0       1.04612784       0.43790466      -0.14067128       0.42774308       1.82413978      -1.01292768
O       -1.15890102      -0.42449732      -0.14972505        0      -0.34994725       0.63348222       2.30408268       0.97728200      -0.58084677      -0.31840654
O        0.58575305       0.21727343       1.18562305        0      -1.13229453       1.07195090      -0.64073316      -0.24886078      -0.35142686      -0.79219580
O        0.66558410       0.54640198      -1.04090289        0       0.03928866       0.18059907      -1.20105390      -0.14820305      -0.99016849       3.21008501
C       -0.13124256      -0.51889616       2.18843685        0      -0.34989860      -0.42242532      -0.12487484       0.95947626       1.75406850       1.32145250
C        0.13037178       0.14728268      -2.24573977        0      -0.06237453      -1.58219848      -0.51344733      -1.23293839       1.74134381      -2.66255175
H        0.79415708      -0.81557551       2.77662868        0       0.08249902      -0.28252337       0.15119132      -1.90102517       0.01270005      -0.29477045
H       -0.73109446       0.35138186       2.67199264        0       0.12249239       0.02330031       0.18664577       0.75204234      -2.13150854      -0.44952742
H       -0.79782334      -1.29685642       1.77876707        0       0.37068502       0.04266430      -0.35401354       0.31764892       0.38669874       0.44152210
H        0.93044597       0.35661053      -3.01910046        0       0.06294386       0.14784530       0.44425699      -1.34230992      -0.27997443       0.89089786
H       -0.17049378      -0.89772568      -2.28488732        0       0.08493764      -0.38306141      -0.15669996      -0.55501231       0.07108014       0.15268519
H       -0.81648513       0.85693933      -2.36719995        0       0.08554048       0.13246181       0.04531726       1.99415701      -1.45610593      -0.48626302
12
Properties=species:S:1:pos:R:3:molID:I:1:momenta:R:3:forces:R:3 Nmols=1 Comp=DMC(1) energy=-589.3945192949215 free_energy=-589.3945192949215 pbc="F F F"
C       -0.01296547       0.07656913      -0.00543282        0      -0.58829513       0.35981500      -0.45237928      -0.38672712       0.62486994       2.29419255
O       -1.10931381      -0.40492605      -0.05565700        0       1.36935180      -0.04806049       0.40844863      -1.88360085      -1.16263511      -1.65030372
O        0.56272512       0.28735962       1.17500702        0      -0.07936498       1.28678137       0.30865100       0.17447943      -0.55537974       1.72336027
O        0.63540885       0.53737489      -1.01006823        0      -1.02434182      -0.40988628       0.71578518       0.11183909      -1.01857416      -2.75972466
C       -0.09772133      -0.49899558       2.18058277        0       0.86624188       0.64168905      -0.18056707      -0.70116988      -2.41438486       2.64569619
C        0.09774252       0.03776231      -2.30691785        0      -0.19214988      -0.54748602      -0.96546960       0.24600878       3.13931703      -1.14952538
H        0.46069730      -1.18442257       2.92377268        0       0.01943782      -0.35530436      -0.01993562       0.57709687       2.12097354      -1.73069166
H       -0.82080309       0.01113288       2.92453662        0      -0.22895043      -0.32601429       0.07502732       1.33351146      -0.05886418      -2.50792889
H       -0.51663394      -1.38735564       1.64779238        0       0.11012046       0.00085871       0.20608074      -0.24832338       1.15164921       0.03807897
H        0.93951085       0.37716275      -2.97343324        0      -0.05158580      -0.18234114      -0.04226546      -0.76625746      -0.63391131       0.84868528
H       -0.24598565      -0.97963910      -2.46894331        0      -0.06388808      -0.19067259       0.18467683       0.12149888      -0.30657073       0.86048613
H       -0.77091802       0.69501810      -2.71183375        0      -0.13657584      -0.22937896      -0.23805269       1.42164419      -0.88648962       1.38767493
12
Properties=species:S:1:pos:R:3:molID:I:1:momenta:R:3:forces:R:3 Nmols=1 Comp=DMC(1) energy=-589.7897387263354 free_energy=-589.7897387263354 pbc="F F F"
C       -0.04208212       0.15326192       0.07209248        0      -0.90107870       1.10575705       1.25975578      -2.56637060      -0.83629461      -1.55206503
O       -1.10991022      -0.46439805      -0.10724542        0      -0.41783595      -1.19640811      -1.60048596       1.73723944       0.44905059      -0.78472149
O        0.53275866       0.31963589       1.21325828        0      -0.26201441       0.15166525       1.10621240       1.36540668       0.90263040       0.87743233
O        0.56997487       0.52901050      -1.05283095        0      -0.79096851       0.39685856      -1.60952153       0.92501011       0.38894401      -0.48900672
C       -0.01481749      -0.49642775       2.22592699        0       0.80198881      -0.38518915       0.28691046      -3.13608002      -0.02910626      -0.87515483
C        0.14675325       0.01957473      -2.34987171        0       0.89851721      -0.39265874       0.09950130       0.02393405      -0.17998802       1.92988416
H        0.75936984      -1.02764704       2.81554091        0       0.40689008       0.40898646      -0.03509423      -0.74669917       0.62829102      -0.60246718
H       -0.93364920       0.09394148       2.70756550        0       0.09146164       0.25952306      -0.18124506       2.35421752      -1.32952930      -0.79983048
H       -0.63552670      -1.27771431       1.61236249        0      -0.02211145      -0.10890722       0.49868424       0.80341370       0.08846380       2.35612511
H        1.01689528       0.11255254      -3.07004272        0      -0.07803221      -0.32680935       0.07901644      -1.51697771      -0.05024151       1.05290451
H       -0.10800556      -1.05841717      -2.14207622        0       0.24986723       0.26027086      -0.08666378      -0.46553802       0.54102052      -1.30317704
H       -0.80137425       0.53866544      -2.63723999        0       0.02331626      -0.17308865       0.18292994       1.22244402      -0.57324063       0.19007667
12
Properties=species:S:1:pos:R:3:molID:I:1:momenta:R:3:forces:R:3 Nmols=1 Comp=DMC(1) energy=-589.6535999896137 free_energy=-589.6535999896137 pbc="F F F"
C       -0.15013471       0.18620778       0.03732555        0      -0.70242653      -0.19914841      -1.65633512       2.83393487      -0.81959302      -0.01298846
O       -1.09455721      -0.53669114      -0.17861357        0       0.51483753      -1.40321314       0.04468254      -0.60166281      -0.73241954       1.68723377
O        0.53202087       0.34794028       1.22774889        0      -0.68305937       0.51791105      -1.44349515      -1.97451427      -0.50291708      -2.39081102
O        0.55196142       0.55359839      -1.07660345        0       0.38260292       0.50525302       1.26857044       0.76088799       1.30061380       2.41311142
C        0.00084879      -0.50209510       2.25150351        0       0.13985332       0.66215560       0.67033836      -0.12749659       2.70914082       2.34907877
C        0.17806072      -0.01115923      -2.26609705        0      -0.16497991      -1.12045345       0.35486852      -0.15714944      -1.48538259      -2.34297656
H        0.90833935      -0.53107661       2.91078292        0      -0.05416953       0.46988648       0.24307658      -0.53115555      -0.92434603      -0.43972997
H       -0.61342298       0.25413755       2.94733636        0       0.29042736      -0.09718211       0.54324897       0.53312283      -2.07433746      -1.92623046
H       -0.53563316      -1.45311755       1.97217201        0       0.21829043       0.00238036      -0.23035795       0.24975628       1.32510455      -0.74594958
H        1.05625622       0.04089791      -3.01837647        0      -0.17348565       0.12281355       0.18998735      -1.64895713      -0.09804343       1.60439875
H       -0.18110938      -1.08967832      -2.14697286        0      -0.08317916       0.27156842       0.34616676       0.26903289       1.43246927       0.18452621
H       -0.67806068       0.54954767      -2.67859262        0       0.31528859       0.26802863      -0.33075130       0.39420091      -0.13028929      -0.37966288
12
Properties=species:S:1:pos:R:3:molID:I:1:momenta:R:3:forces:R:3 Nmols=1 Comp=DMC(1) energy=-589.6272754135855 free_energy=-589.6272754135855 pbc="F F F"
C       -0.12238903       0.16485844      -0.05031267        0       0.45775406      -1.06127405      -0.06099880      -2.72684299      -3.61590515       3.01663525
O       -1.08830604      -0.63928022      -0.14867400        0       0.54059489      -1.13643672       0.89595749       2.18828260       1.75384651      -0.42263050
O        0.44319304       0.35956303       1.11829014        0      -1.74376135      -0.13845534      -1.55163758       0.33139197       0.77170274       1.46354677
O        0.56920012       0.62233814      -0.98745632        0       0.37415647       1.51118883       0.21678327       0.43576934       0.14430320      -3.43807264
C        0.06847086      -0.39436921       2.29289188        0       1.12988801       1.54243007      -0.36453687      -4.32285715       0.03872093      -1.48384046
C        0.14534125      -0.03949785      -2.22299191        0       0.13607298       0.32777085       0.94083668       1.92986653      -1.93738240      -1.06393924
H        0.98322899      -0.46369168       2.80820733        0      -0.01113366      -0.27093603      -0.35006407       0.34384753      -0.26856528       0.69743115
H       -0.90130934      -0.06604368       2.91557174        0      -0.44905956      -0.18375669      -0.40480564       2.60274563       0.15941578      -1.18638693
H       -0.46940645      -1.29684371       1.86582911        0       0.07121431      -0.04370208       0.23233455       1.11322419       0.13067834       0.02507579
H        1.12280398      -0.05680457      -2.89003286        0      -0.09192776      -0.21500262       0.60939363      -2.20809261      -0.01789478       1.93818577
H       -0.40287587      -1.14591557      -2.16799615        0      -0.21515758      -0.24212525      -0.42252910       1.01382937       2.01573049       0.72643484
H       -0.52515957       0.59155296      -2.75427500        0      -0.19864081      -0.08970097       0.25926643      -0.70116441       0.82534963      -0.27243981
12
Properties=species:S:1:pos:R:3:molID:I:1:momenta:R:3:forces:R:3 Nmols=1 Comp=DMC(1) energy=-589.2055041907585 free_energy=-589.2055041907585 pbc="F F F"
C       -0.09933137       0.01561415      -0.05488135        0       1.08417616      -0.85902535      -0.60146659       1.83169734       4.12921319      -1.68906348
O       -1.05326073      -0.68495618      -0.08049042        0       0.02488682      -1.35501343       1.22481151      -1.60827036      -2.13247087       0.36004250
O        0.38895788       0.38958939       1.08146489        0       0.07321497       1.22710909       0.05435989       1.89213389       1.74709532       0.18711869
O        0.55528121       0.70890345      -1.03067277        0      -1.29230560       0.44161537      -0.48304773      -1.12741583      -1.57137405       1.05521213
C        0.06939451      -0.31767374       2.22327720        0       0.17383683      -0.24805267      -1.14620267      -1.74452948      -3.35694597       0.70043864
C        0.13730950      -0.03942571      -2.16277181        0       0.43783165       0.81379454      -0.01509300       1.83383734       0.54325373      -1.94043173
H        0.92712621      -0.59514496       2.79380561        0      -0.34131635       0.26288696       0.24230675       0.66440463       1.13948761       1.20151193
H       -0.88780051       0.14569737       2.62540562        0      -0.07485248       0.47055838       0.18662105       1.53848085      -0.93466294      -0.35777808
H       -0.05107147      -1.45597436       1.87670414        0       0.27481103      -0.05804146       0.27929126      -1.42355756       0.94509770       1.35743510
H        1.21025124      -0.34601793      -2.66206216        0      -0.24192893      -0.28948155       0.05680227      -2.66103685       0.38730293       1.06506593
H       -0.46017927      -0.94239525      -1.95211656        0      -0.16029370      -0.42770176       0.31159061       0.37080096      -0.27638979      -1.51987205
H       -0.62965550       0.65940004      -2.61119610        0       0.04193961       0.02135188      -0.10997335       0.43345506      -0.61960687      -0.41967959
12
Properties=species:S:1:pos:R:3:molID:I:1:momenta:R:3:forces:R:3 Nmols=1 Comp=DMC(1) energy=-589.2613949405201 free_energy=-589.2613949405201 pbc="F F F"
C       -0.04516068      -0.01223545      -0.11563916        0      -0.85026555      -0.75337456       0.37060680      -2.46900031       0.15763643       3.34088657
O       -1.02253980      -0.77007869       0.01594817        0       2.00043497      -0.56598764       1.56214217       1.88671442       0.68216759       0.38735470
O        0.42879556       0.49078082       1.05838045        0       1.58337277       1.20084544      -0.53929137       0.47748533      -2.40970362       0.20766574
O        0.44159075       0.71128401      -1.04398300        0      -2.48693362       0.10163508      -0.51513461       0.34081214       0.65978002      -1.42991655
C        0.08100291      -0.36116602       2.23117190        0       0.16864249       0.19766024       1.38319138      -1.88516110       3.16364854       0.04942002
C        0.14432017      -0.03416854      -2.20808139        0       0.45635553      -0.76209531      -1.32425422       4.02089895       1.16644178      -3.48318147
H        0.73449082      -0.06192281       3.03358952        0       0.07970748       0.16748308      -0.36181297       1.72222461      -0.79993427      -0.13653733
H       -0.75146176       0.31217255       2.63899657        0      -0.65381305       0.19683818      -0.04228453      -0.55603830      -0.93905059      -1.17745859
H       -0.34510822      -1.36912367       2.14940997        0      -0.49068265       0.16867466      -0.23227215       0.26452726       0.12324137      -0.96856349
H        1.10552159      -0.57516350      -2.82525617        0       0.05679359      -0.14379686      -0.24579874      -2.14338711       1.81829978       1.52737728
H       -0.28287925      -0.86822642      -1.91195842        0       0.00462670       0.13676737       0.25520253      -2.02091134      -3.40910884       0.87778633
H       -0.49025551       0.52579431      -2.90064421        0       0.13176134       0.05535033      -0.31029429       0.36183546      -0.21341821       0.80516679
12
Properties=species:S:1:pos:R:3:molID:I:1:momenta:R:3:forces:R:3 Nmols=1 Comp=DMC(1) energy=-589.8995746400903 free_energy=-589.8995746400903 pbc="F F F"
C       -0.03642582       0.04799725      -0.04749536        0       1.24227805       2.83226304       0.86786086      -2.18350281      -0.86988640       1.02247909
O       -0.93176926      -0.79985490       0.13252028        0       0.51755446      -1.08111343       2.57809866       0.33472968      -0.61679818      -1.39975938
O        0.51063654       0.48038036       1.05222712        0       0.94853676      -2.22991129       0.17483881       0.15747081      -1.08736364       2.35707702
O        0.29163382       0.70997260      -1.10944826        0      -2.61899607      -0.16647933      -2.19356963       0.36142529      -0.41676186      -1.90272456
C       -0.01296911      -0.25144450       2.28177932        0      -1.27315445       1.52749436      -0.32072056       0.79443644      -0.31728506      -2.65518717
C        0.17584254      -0.13332465      -2.32521463        0      -0.12918686      -0.98597384      -0.51167412       2.76535095       1.01093993       0.59603672
H        0.92246694      -0.24209722       2.84325728        0      -0.26271955      -0.36386995      -0.26384407      -0.57772511       0.15829522       0.48580787
H       -0.95073264       0.23226278       2.55903671        0      -0.26560884       0.35522094       0.38994383       0.63304122       0.26399468       0.02854535
H       -0.33330272      -1.37388147       2.17526311        0       0.84896518       0.11741750       0.08467773       0.50748503       1.76851021      -0.83290747
H        1.27280390      -0.43424818      -2.79353120        0       0.73834253      -0.09370492      -0.06577772      -2.73410300       0.78071657       1.10280764
H       -0.23136447      -1.08035395      -2.00175104        0       0.35667290       0.08305322      -0.71452989      -0.36110027       0.23871502       0.92167907
H       -0.39826166       0.53176738      -2.98640356        0      -0.10268411       0.00560371      -0.02530390       0.30249176      -0.91307649       0.27614582
12
Properties=species:S:1:pos:R:3:molID:I:1:momenta:R:3:forces:R:3 Nmols=1 Comp=DMC(1) energy=-589.2775856765392 free_energy=-589.2775856765392 pbc="F F F"
C       -0.08066387       0.12407670      -0.03059674        0      -2.29106583      -0.43557075      -0.71173873      -0.37344886       0.13978040      -1.68085242
O       -0.86023504      -0.83096452       0.23690097        0       1.46929207      -0.10428313       0.36620705      -1.02684531       0.72339005      -2.78386756
O        0.61013853       0.40897878       1.11682867        0       2.21644513       0.15810843       1.40456036      -0.47447865       1.62556514      -1.60097593
O        0.13919890       0.67598342      -1.26377218        0      -2.01112840      -0.25393430      -2.32684959       0.29275157       1.54820982       3.00301113
C       -0.03349503      -0.13783242       2.23991258        0       1.38843179       0.98977765       0.61081603       1.76614801      -1.79142569       1.92139920
C        0.20429438      -0.16847049      -2.34300067        0      -0.79357590      -0.76945944       0.54767934      -1.14616537      -1.41222134      -0.29780020
H        0.85110511      -0.12114777       2.89962282        0      -0.26110367       0.42399341      -0.03862505       0.78532099      -0.46263025       0.45113347
H       -0.74483992       0.30834478       2.94370435        0       0.23583307       0.05407205       0.06584166      -0.75171742       0.38226464      -1.46583937
H       -0.24635908      -1.23471713       2.00880183        0      -0.67260705       0.09656623       0.30363856      -0.11451503      -0.19642702       3.23326294
H        1.22370859      -0.17965922      -2.78994255        0       0.88738697       0.20420086      -0.43770178      -1.18606333      -0.26954364       0.46790850
H       -0.24615592      -1.16097598      -1.82383575        0      -0.00604572       0.32555747       0.37160136       1.12082472       0.56488128      -1.92258677
H       -0.55840690       0.21225753      -3.08113327        0      -0.16186245      -0.68902849      -0.15542920       1.10818869      -0.85184341       0.67520700
12
Properties=species:S:1:pos:R:3:molID:I:1:momenta:R:3:forces:R:3 Nmols=1 Comp=DMC(1) energy=-588.9972231249083 free_energy=-588.9972231249083 pbc="F F F"
C       -0.17326510       0.11975995      -0.09811382        0       0.07595805       0.59569312      -0.08923583       2.76214387      -0.24780490       0.40226000
O       -0.81596266      -0.85966538       0.21447787        0      -0.21516506      -0.65898188      -0.97376106      -0.99290645      -0.02904515       0.13337003
O        0.70438924       0.42119277       1.16093754        0       0.82100392      -0.60895258      -0.32836506      -1.68668880      -0.85228398      -3.83934003
O        0.00141443       0.72276443      -1.29251283        0      -2.53037383       1.21716943       0.51231709      -0.86389417      -0.86205121       1.26236919
C        0.08550713      -0.10763887       2.31784681        0       1.56496594       0.93158226       1.20630734       0.06285949       3.76691267      -1.81486787
C        0.17960696      -0.24189643      -2.33689665        0      -0.21418736      -0.96942723       0.46308444      -7.42910743      -3.46599408       4.31844058
H        0.95787632      -0.01574621       2.97500513        0      -0.11788483      -0.18517958      -0.13785603      -0.18207234      -0.26390123       1.10548904
H       -0.77354693       0.66939842       2.41564107        0       0.21484341       0.54229421      -1.00638336       0.85086270      -0.81093724       0.52507716
H       -0.40466032      -1.01578752       2.37314846        0       0.22276036      -0.16554626      -0.42277377      -0.48368229      -1.89623427      -1.14735017
H        1.01203484      -0.10485603      -2.72767236        0      -0.35907996      -0.06492442       0.26756055       7.19493094       1.15880093      -2.69652068
H        0.07759328      -1.32959780      -1.74235029        0       0.70451262      -0.23043644       0.29498595       0.43232407       2.74749874       0.05469189
H       -0.60070304      -0.40413311      -3.14959144        0      -0.16735326      -0.40329063       0.21411973       0.33523041       0.75503973       1.69638086
12
Properties=species:S:1:pos:R:3:molID:I:1:momenta:R:3:forces:R:3 Nmols=1 Comp=DMC(1) energy=-589.8744058252757 free_energy=-589.8744058252757 pbc="F F F"
C       -0.08308954       0.09086889      -0.09358182        0       1.30411103      -1.02730536       0.50701627      -0.26432738      -0.51672868       1.02309026
O       -0.81315198      -0.86301691       0.12643384        0       0.31278701       0.53744338      -1.71826606       1.03222296      -0.70731272       0.56687131
O        0.75004487       0.37127259       1.04181263        0       0.95031715      -0.64510956      -2.56832785      -0.48220508       0.07323834       0.78192204
O       -0.16591022       0.73676611      -1.22635658        0      -2.87572030      -0.02618683       0.88645768       0.78355124       0.42023360      -1.38678904
C        0.14458911       0.00105801       2.30663427        0       0.59618315       1.16382895      -0.84913127       0.22570580       1.11644407      -0.78658889
C        0.15704083      -0.29946702      -2.20112957        0       1.10804503       0.46975958       1.98508655      -2.84482504       0.38966757       2.75915027
H        0.79969715      -0.23202883       3.17622276        0      -0.25214564       0.08689959      -0.31760207       0.97604097       1.56073141      -0.61763717
H       -0.68476774       0.72844024       2.51720746        0       0.12489420      -0.33606557       0.81373171       0.85931446      -0.44808946      -0.72332440
H       -0.22909940      -0.97300137       2.24175261        0      -0.18739836       0.14538502       0.08144908      -2.14676734      -2.42600983      -0.87439527
H        0.95589028       0.02238751      -2.76006113        0      -0.95047795      -0.06702354       0.05733101       1.42687678       0.93520509      -1.82695391
H        0.68643899      -1.05774316      -1.60576421        0       0.23481666      -0.09096511       0.54076684      -1.44129404      -0.62576797       0.79674462
H       -0.85713958      -0.62645396      -2.64196628        0      -0.36541199      -0.21066055       0.58148812       1.87570667       0.22838859       0.28791018
12