160
Lattice="16.0 0.0 0.0 0.0 16.0 0.0 0.0 0.0 16.0" Properties=species:S:1:pos:R:3:forces:R:3:momenta:R:3 temperature=300 density=0.4804407154267432 energy=-7658.816693773111 virial="11.020911284539439 -6.144933306469074 -13.401928177730145 -6.144933306469074 12.096849191522034 -17.99259828520397 -13.401928177730145 -17.99259828520397 18.035138813579657" free_energy=-7658.816693773111 pbc="T T T"
C        1.34880000      13.67840800       2.06934400       0.17837483       0.65226102      -4.27310839      -0.60018245      -0.40060681       0.11882791
C        1.03020800      15.13351200       1.64745600      -2.04251028      -2.03304317       0.32680955      -0.10654514       0.36512464       0.51354824
O       -0.04500800      14.92341600       0.69915200      -0.04365015      -0.84300558       0.17897803      -0.61755421      -0.21414565      -1.70281900
C       -0.30739200      13.58911200       0.52014400      -1.95561773      -0.99220991      -2.26272138       0.46922027       0.33311927       0.73071391
O       -1.18424000      13.10970400      -0.22454400       3.59721542       1.43925242       2.69929103       0.97651757      -1.26511224       0.06387241
O        0.44880000      12.83786400       1.34280000      -0.12138466       1.06064678       0.08191188      -0.54402808       0.26512711      -0.00173226
H        1.30707200      13.51276000       3.05816000      -1.03792190      -1.01682591       3.93079998       0.03968148      -0.00444854       0.14467102
H        2.37593600      13.57954400       1.70974400       0.31734759      -1.34257236      -0.25341905       0.25595725       0.21111664       0.11340904
H        1.81454400      15.56711200       1.09153600       1.64480531       2.55004179      -1.51220070       0.37234302       0.04038724       0.22688512
H        0.72540800      15.74021600       2.51732800      -0.13565927      -0.09265453      -0.18322355      -0.14183272       0.00187883       0.18382664
C        0.40548800      14.39047200      12.40337600      -0.62795317      -0.91149150      -1.11618410      -0.31880370       0.27856901       0.95477746
C        1.82017600      14.54328800      12.90489600       0.19186085       0.34084442       1.66847028      -0.82970575      -0.26778023      -0.22336890
O        2.52776000      15.12050400      11.82985600       0.26857093       0.41088063      -0.22531982       0.29769359       0.49948649      -0.79781869
C        1.69102400      15.38904800      10.79868800       0.89099119      -0.80085317       0.00214989       0.53153502      -0.44423838      -1.37522589
O        2.11038400      15.83978400       9.78081600      -0.33072711       0.23267852       0.01679292      -0.23902241      -0.09904900      -0.02111199
O        0.49240000      14.91301600      11.06587200      -1.29363302       1.11644576       0.14092108      -0.76633833      -0.84587601       0.41844718
H       -0.47054400      14.84208800      13.00603200       1.86510024      -0.81344415      -1.07453172      -0.43582455      -0.07997316       0.02320128
H        0.24377600      13.31496800      12.11147200      -0.47454563       0.80992174       1.24878015       0.22326276       0.01756541      -0.11572882
H        2.36252800      13.62767200      13.18422400      -0.19110833      -0.56596324      -0.01694711       0.25478238       0.19837298       0.10313656
H        1.78928000      15.20431200      13.80664000      -0.47105475      -0.61749927      -0.98906401       0.13027375      -0.03347087       0.08990925
C       10.12502400       4.07975200       9.30172800      -0.66306126       1.56722148       1.32562131       0.06801290      -0.58390286      -0.44874718
C       10.19048000       2.71872800       9.95347200       0.64206507      -0.13842466      -1.07012256       1.14678040      -0.44150492      -0.46689761
O       11.44099200       2.27079200       9.43888000       0.05982304      -2.67668690      -0.24417217       0.18587536      -0.47676102       1.07196065
C       12.04145600       3.19759200       8.73499200       7.35680613      -1.13459378      -0.94284687      -0.12055750       0.11054399      -0.50120284
O       13.21267200       3.09876000       8.29251200      -5.36194745       0.15925100       1.06622024      -0.10974496      -0.02849840       0.40792852
O       11.36347200       4.28392800       8.68734400      -0.49502423       2.45011325      -1.13129158       0.21864482       0.55236894       1.80749314
H        9.98536000       4.77119200      10.12920000       0.05836347       0.58747528       0.22272042       0.12608735       0.02602630       0.07226359
H        9.34158400       4.22031200       8.60320000      -1.74179541      -0.30848275      -1.76997311       0.07187872      -0.15260434       0.27089268
H        9.28675200       2.18876000       9.61963200       0.41095944      -0.49027460       0.11006310      -0.06628515      -0.12200911       0.13424501
H       10.42422400       2.71924000      10.99419200      -1.63201883      -0.29541366       2.38439919      -0.18237274      -0.23966031      -0.11331409
C        4.58083200      14.48989600       5.33444800      -1.47390256      -1.27405217      -0.93724229       0.65667576       0.24949418       0.40170525
C        3.43568000      15.17949600       4.50710400      -0.70976720      -0.08021669       2.14875643      -0.00395363      -0.16953999       0.01643984
O        3.92507200      15.14581600       3.20284800       0.34706016       0.49434426      -0.98563781      -0.08822781      -0.90698694       0.57077577
C        5.14966400      14.58876000       3.18115200       1.29780435      -1.72573374      -2.23000031       0.22181165      -0.42809454       0.54301014
O        5.74512000      14.20599200       2.19385600      -1.13232343       0.92666935       1.26598339      -0.05504247      -0.41442663      -1.20367736
O        5.62908800      14.29925600       4.38252800      -0.43354694       0.24567904       1.09813028       0.55151183       1.06412042       0.17640526
H        4.08164800      13.51775200       5.63308800       1.10758536       0.78915492      -0.17500604      -0.04238661      -0.06544570      -0.22197126
H        4.94686400      15.07349600       6.15572800       0.47372629       0.27540301       0.84113220       0.01396268       0.04824550      -0.02546563
H        3.31854400      16.21872800       4.85180800       0.29431585       0.42586660      -0.16969547       0.09815174       0.26492241      -0.00770098
H        2.38337600      14.79511200       4.64241600       0.81166989       0.65097284       0.14078382      -0.10465841       0.07387700       0.14920718
C        4.91086400       9.10376800       4.06750400       0.98521930       2.27015206      -0.23207958      -0.12544324      -0.09239610       0.13951715
C        4.30888000       7.78951200       3.71198400      -0.85166392      -0.96314920       0.48248698       0.10837249      -0.18264498      -1.20328340
O        4.40400000       7.76576800       2.32744000       0.03161405      -0.74966725      -3.41926527       0.52652622       0.97171796       0.54930917
C        4.27865600       6.63610400       1.58473600      -0.26622525      -3.08559096       0.59493287      -0.00272646       0.31582042      -0.02510232
O        4.16836800       5.52104800       2.08152000       0.36278469       1.96614786      -0.92568685       0.09673685      -0.06494497      -0.25389835
O        4.22204800       6.83728800       0.25484800       0.56912151      -0.81930979      -1.24341964       0.35048735      -0.63610159       0.25353826
C        4.28427200       5.72165600      -0.73697600      -0.75895834       1.39164491       3.36987080      -0.22892318       0.96838431       0.31131062
H        5.92164800       9.16954400       3.64206400       0.06977261      -0.54303256       0.48984680       0.22480130       0.18601593      -0.05612514
H        4.92302400       9.45500000       5.09787200      -0.13532364      -0.21707321       0.50766401       0.11795730       0.23398910       0.31701332
H        4.40254400       9.84468000       3.46379200      -0.65785163      -0.17440723       0.31391738       0.04048745      -0.03313092      -0.15587350
H        3.25672000       7.57893600       3.90248000      -0.67907865       0.88052915       0.52256184      -0.06310161       0.11840431       0.07432487
H        4.81904000       6.98557600       4.19307200       1.07408406      -0.62421629       0.38686148       0.21684933       0.05364334       0.01522454
H        4.12323200       6.08205600      -1.70097600       0.11601356       1.21575172      -1.61303756      -0.28966287       0.04284931       0.17759374
H        3.42265600       5.09383200      -0.53316800      -0.77632921      -0.46643903       0.41413439      -0.23662560       0.00393413      -0.11086114
H        5.16497600       5.11717600      -0.63193600       0.93839223       0.23870951       0.35529824      -0.02544436       0.22073148       0.26944688
C        5.07480000       0.88532000      11.79827200      -1.65202913      -0.22421205       1.01977928       0.30953760      -0.29714627      -0.43331157
C        6.47404800       1.56791200      11.83806400      -1.20656769       1.38384348       0.40227889      -0.33166289      -0.38068004      -0.11441712
O        6.59897600       2.38204000      13.04064000      -1.23060654      -0.43788169       0.00850518       0.34292503      -0.55994082      -0.19504381
C        7.69176000       3.06292000      13.38534400      -1.30340665      -2.04304735       0.61091393      -0.29704160       0.13152894       0.55728346
O        8.66160000       3.06149600      12.70580800       3.11232828       0.82672464      -1.55415897       0.28450536      -0.71966689       0.72425783
O        7.60188800       3.46687200      14.65348800      -0.95958613      -0.06905332      -0.87836321      -0.59599842      -0.55569109       0.00188313
C        8.78228800       3.92476000      15.24144000      -0.43183445       0.37480162       0.93269667       0.04050167      -0.06749212       0.46236821
H        4.91368000       0.29287200      12.69296000       1.27762469       0.45166344       0.33145507       0.16153157      -0.19859307      -0.01377967
H        4.79891200       0.23308000      10.97312000      -0.00464361      -0.09208343      -0.23888897      -0.13888117      -0.17243880      -0.11720496
H        4.24300800       1.61172000      11.89113600       1.30077134       0.18772857      -0.36344078      -0.07356722      -0.18569242      -0.05645796
H        6.55131200       2.23800800      10.94792000       0.34556934      -1.56221116       0.17405613       0.08636149       0.04086410       0.67646730
H        7.22403200       0.77202400      11.82611200       0.35232294       0.53087191      -0.36640567       0.01454597      -0.02532282      -0.22430430
H        9.20924800       4.76973600      14.71870400       0.14584012       0.78500927       0.32603528       0.03975798      -0.24809179       0.02534322
H        9.55876800       3.18124000      15.19648000       1.08065609      -0.14595429       0.24524030      -0.01746794       0.02160936      -0.02917131
H        8.48553600       4.11850400      16.29966400       0.28406511       0.23432332      -0.89556811      -0.12217878      -0.10172509      -0.16142452
C        9.62316800       0.48868000       0.47468800      -0.82784902      -0.50520023       0.26721407       0.22872873      -0.35862381       0.56100953
C       10.20696000       0.41202400       1.88052800      -0.88970888      -0.28239756      -0.49517593      -0.41094252       0.04869197      -0.66465193
O       10.11385600       1.69983200       2.42248000       0.89202690       1.27220321       0.93823432      -0.38147383       0.71334839      -0.42442078
C       10.91574400       1.94548000       3.46892800      -1.32918536       1.41239525       1.09357624       0.11462240       0.76087494       0.56650075
O       11.73520000       1.16960800       3.89256000       0.57558480      -0.67649595       0.24890932      -0.24217991       0.22513445      -0.40906704
O       10.55318400       3.13172000       4.15414400       1.35270791      -1.70815619      -1.17064667       0.05551644      -0.42420084       0.01707779
C       11.45769600       3.57584800       5.15416000       1.40258379       1.61506707       0.19943640      -0.38617574       0.41898036      -0.90239568
H       10.32664000       1.04712800      -0.11531200       0.34085059      -0.21019143      -0.08243157       0.02418388      -0.17039120      -0.02894972
H        8.66624000       1.02399200       0.32132800       0.31406071      -0.51375925       0.51695929      -0.11234374      -0.12905241       0.10708973
H        9.48729600      -0.55236000       0.13158400       0.24270331       0.31981588      -0.14123916      -0.02347708      -0.10526695       0.07963325
H       11.16536000      -0.05132000       1.81174400       1.40434283       0.40320799      -0.66136788       0.08152303       0.12150860       0.01119497
H        9.71304000      -0.26047200       2.57160000      -1.45039112      -0.60712113       0.39162795      -0.03730374       0.04187328      -0.08086354
H       11.39707200       4.63188000       5.51241600      -1.28056885      -0.55449405      -0.92043086      -0.18161294      -0.03015178      -0.03565732
H       12.51196800       3.52543200       4.87027200       0.45208306       0.04177796      -1.82701738       0.17606864       0.12017327      -0.05484054
H       11.53169600       2.96466400       6.00208000      -1.14792837      -1.33985936       1.82877141       0.23672756       0.05913047       0.03739779
C       11.11936000       8.14260000       2.53593600       0.60084583      -0.11006297       0.35625530       0.68530154       0.49116177      -0.22964803
C       11.82140800       8.49324000       1.21937600       0.39763494       1.54419722      -0.32868904      -0.68705753      -0.38747762       0.56703887
O       13.18364800       8.92396000       1.43150400       0.19215091       0.15052381      -0.58175119      -0.25108175       0.10402516      -0.58143995
C       14.04248000       9.17501600       0.37032000      -2.91244479      -1.35778068      -1.13017409       0.03775743      -0.85900029       0.62048121
O       13.62838400       9.12896800      -0.78560000       1.29678545       0.53120737       1.74056605      -0.05765988      -0.13810791       1.12622468
O       15.29475200       9.29746400       0.75524800      -0.44507159       0.27626482       0.06533090      -0.24617837      -0.63269231       0.83030011
C       16.17358400       9.62472800      -0.30758400       0.94546409       2.33916139       0.64658085      -0.72533293      -0.15884118      -0.66254086
H       11.68584000       7.27956000       2.98668800      -0.53866962       0.94440896      -0.12546626       0.14644035       0.16149326       0.03582518
H       10.09864000       7.91248800       2.31344000      -0.28904735      -0.64334849      -0.19801629       0.21051149      -0.17396372       0.18158299
H       11.01481600       8.98591200       3.21016000       0.79699976      -0.05106825       0.01349636      -0.39396191      -0.24661157      -0.13259779
H       11.21585600       9.23412000       0.64102400       0.57709518       0.23337697       0.73783807       0.12620861       0.20395160       0.15367288
H       11.79681600       7.61804000       0.61336000       0.24775801      -1.47099033      -0.75559599      -0.15069612       0.10863811       0.03343276
H       17.18424000       9.49413600       0.07880000       0.03659162      -0.30543769       0.39520776       0.12977928       0.20349801       0.24012976
H       16.13515200      10.72685600      -0.59980800      -0.77863315      -0.38392554       0.46948504      -0.00195286       0.03622500       0.05818412
H       16.05200000       9.07674400      -1.18920000      -0.49424052      -1.23442507      -1.27878872      -0.27273573       0.23533927      -0.01243780
C        4.15139200       5.49696800       9.60987200      -0.51772365      -1.35610082      -0.09833549       0.36231647       0.14666627      -0.62278883
C        5.02936000       4.18016800       9.47516800      -2.87023501       3.20552298       2.03801009       0.03771413       0.28091119      -0.78750218
O        5.87836800       4.29952800       8.42763200       1.03469974       1.40733335      -1.26175846      -0.00846623       0.37036529       0.05978450
C        6.56424000       3.25744800       8.11152000       1.03311640      -3.05287416      -0.47594417      -0.32921177       0.20132541       0.65098895
O        6.39516800       2.12152800       8.58624000      -0.61552440       1.64402553      -0.79150565      -0.44640927       0.19139386       0.38623246
O        7.44644800       3.42759200       7.13307200      -0.12787664       0.92670859       0.30667809       0.23696734       0.89641117       0.96856746
C        8.01360000       2.25317600       6.60553600       0.01363449      -1.40876593      -1.69965360      -0.54785045       0.54155356      -0.91862863
H        3.64577600       5.65776800      10.56491200       0.55664438      -0.06535366       0.33997686      -0.14859568      -0.18118192      -0.27895418
H        3.27020800       5.35468000       8.96184000       0.98829549      -0.01082897      -0.31564202      -0.08538865       0.09905797       0.03861547
H        4.70142400       6.40716000       9.36408000       0.17777948      -0.41032750      -0.19430868       0.02612809      -0.23563367       0.43718511
H        4.43892800       3.29066400       9.39352000       0.11154864      -2.19147165      -1.02298444       0.00219830      -0.05341781      -0.05325960
H        5.55670400       4.04733600      10.41848000       0.77198503       0.68160674       0.43095942      -0.05730225       0.03521166      -0.09042383
H        7.34587200       1.38520800       6.60355200      -1.07490146       0.72394990       1.40077509       0.07377648       0.21506623       0.30774912
H        8.91859200       1.94322400       7.05984000       1.34682137       0.17159949       2.21929655      -0.04669973      -0.13332497      -0.32812480
H        8.33276800       2.38700000       5.56716800      -0.27813917       0.83897982      -0.39597563       0.04080122       0.28996661       0.32716358
C       13.38705600      13.31076000       2.98166400      -0.73207166       0.16044256       1.48722637       0.28390856       0.43394179      -0.25076703
C       13.48233600      14.14820000       4.29859200      -1.18931152      -2.02788168      -0.05578139       0.46467687       0.27698024      -1.19127365
O       14.74761600      14.73800800       4.46356800       0.65578403      -0.59552613       1.46168923       0.08518692      -0.01783991       0.76165632
C       15.21976000      15.02424800       5.69801600       2.82420408       1.12253589      -0.03234475      -0.51938967      -0.06396940      -0.41204294
O       16.41371200      15.31618400       5.88038400      -3.36372813      -1.47424077      -1.61742976      -0.18348477       0.56113659      -0.41534309
O       14.30480000      15.06336800       6.66696000       0.30916859      -0.05839597       0.82885663       0.01391761      -0.11468312       0.39786832
C       14.66707200      15.52568800       8.00385600       2.09325802      -0.89473846      -1.87648706      -0.64137096      -0.47048411      -0.82661239
H       13.37872000      14.00141600       2.20224000       0.05379088       1.63597662      -1.35150924       0.03081878       0.11144539       0.15741452
H       12.40140800      12.83648800       2.90491200       0.07162461      -0.46791612       0.08841378       0.08436984      -0.17606680       0.12210464
H       14.23240000      12.68114400       2.78769600       0.79926496      -0.77076334       0.31803120      -0.09606451      -0.15068630       0.19741502
H       13.08088000      13.46634400       5.10324800       1.86118777       0.33828163       0.46696885       0.01791182       0.00152328       0.10302284
H       12.76404800      14.93888800       4.36627200      -1.46657442       2.68729219      -1.36170007      -0.19142591       0.06488009       0.12183512
H       13.95244800      15.32488800       8.71433600      -2.04592225      -0.48538662       1.17848069      -0.16097197      -0.04808290       0.04761227
H       14.95107200      16.55236000       7.95332800      -0.07945992       1.45388388      -0.01036831       0.00909466      -0.16323495      -0.46250984
H       15.58172800      14.98021600       8.30216000       0.09097529      -0.26251744      -0.00758316       0.21101720      -0.02204345      -0.10296410
C        5.06179200       2.03850400      16.99868800      -1.38193771      -2.46116446       0.44969096      -0.17125872       0.30405935      -0.44374140
C        4.25918400       1.76496800      15.64536000       0.16419457       1.21575958       2.57298525       0.23775399      -0.11806594      -0.89982856
O        2.87571200       1.60600800      15.89476800      -1.26583690      -0.33883797       0.89180588      -0.45217171       0.98845475      -0.14880103
C        1.81011200       1.90591200      14.99926400       4.52011018       0.69655802      -3.64270680       0.29389466      -0.26767865       1.03204673
O        2.13283200       2.23024800      13.84609600      -1.29240686      -0.46988714       2.21530891      -0.44939015      -1.13298940      -0.84910237
O        0.61555200       1.69005600      15.41190400      -0.32396878      -0.67973601       2.16685875      -0.26644102      -0.41808080       0.41679526
C       -0.41438400       1.54808800      14.49060800       1.09423586       2.62817460      -1.19757210       0.20462246      -0.37752916       0.13301068
H        6.01691200       2.47789600      16.80913600       0.34708707      -0.03957402      -0.22895038      -0.04216372      -0.06808838      -0.08122262
H        5.05713600       1.11335200      17.70097600      -0.05808970       1.54188928      -1.36927882       0.06513078      -0.11108888      -0.15403742
H        4.50628800       2.77117600      17.53742400      -0.61845326       0.60494805      -0.24151283      -0.34659366      -0.01588185      -0.21001384
H        4.64163200       0.86101600      15.21104000       0.14717350      -0.11315606      -1.06935380       0.05650831       0.22801959      -0.09689248
H        4.48756800       2.69464800      15.11123200      -0.25273107      -1.40404455      -0.41449560       0.01879239       0.22434771      -0.27058563
H       -1.17700800       0.97010400      14.91942400      -1.20839859      -0.30594043       0.41594019       0.30880779      -0.18281198      -0.10267456
H       -0.05849600       1.14516000      13.52825600      -0.03454493      -0.20848367       0.11816832       0.02241709       0.19388571       0.01317055
H       -0.69737600       2.63872800      14.30017600      -0.43750016      -1.46004756      -0.16226873       0.10015023       0.01933078       0.12212239
C        7.03145600      12.03162400      15.78478400      -0.25132203      -0.17445183       1.20117182       0.01873380       0.13062716      -1.15619067
C        5.65401600      11.30852000      15.59524800       1.27298941       2.12406429      -0.91805823       0.14433339      -0.01019144       0.13469724
O        5.48521600      11.10184800      14.17766400      -0.13552254      -0.66857688      -0.55262728      -0.13081719       0.15593818       0.58712706
C        4.26688000      10.95351200      13.63294400      -1.75993031      -0.81793037       0.79306538       0.27661361       0.05523866       0.06529161
O        3.23720000      11.07880800      14.27555200       0.85832797       0.53276929      -0.50378798       1.69869812       0.72750483      -0.16613801
O        4.24235200      10.50511200      12.35676800      -0.15261010       1.01597580       0.12842067      -0.00384366       0.03743575      -0.04039261
C        2.94598400      10.42242400      11.71985600      -0.92988327       0.20903111       2.91509474       0.35858159       0.60511309      -0.71123118
H        6.96035200      13.02495200      15.38732800       0.05465696       0.23312453      -0.66002035       0.13317588       0.17368497      -0.07645012
H        7.83857600      11.45082400      15.36680000      -0.18233699      -0.15706279      -0.69160375       0.16132582       0.14770168      -0.03229054
H        7.32180800      12.18559200      16.83624000      -0.49637236      -0.01936672      -0.19430390      -0.24189017       0.10136320       0.07630747
H        4.85064000      11.94820000      15.96881600      -0.43613066      -0.12349487       0.08927798      -0.01633757      -0.01319769      -0.14021816
H        5.70048000      10.42941600      16.19268800      -0.55520915      -1.46084960      -0.03540030       0.16145886      -0.23068207      -0.22928109
H        2.33512000       9.82949600      12.47569600       0.90616698       0.17053284      -0.99181092      -0.28491809       0.03413585      -0.24842178
H        2.36374400      11.37263200      11.67169600       0.94031693       0.12119296      -0.08284758      -0.07386298      -0.02994297       0.06626062
H        2.91692800       9.96056800      10.76200000       0.77371269      -0.33761414      -0.30416678       0.05856133       0.01853074       0.57400536
