12
Properties=species:S:1:pos:R:3:molID:I:1:momenta:R:3:forces:R:3 Nmols=1 Comp=DMC(1) energy=-589.636962890625 stress="inf inf inf inf inf inf inf inf -inf" free_energy=-589.636962890625 pbc="F F F"
C       -0.06354920       0.02615914       0.03273994        0      -0.05847246      -0.44511757      -0.29132385      -1.09239972      -1.70898438      -2.45333505
O       -1.09745824      -0.56171083      -0.33384407        0       0.11442960       0.19413676      -0.51093586       1.33763111       1.10354722       3.28571153
O        0.59339279       0.04178514       1.16893291        0       0.52054279       0.27306317       0.25976248      -0.67696118       0.31207514       0.37895656
O        0.70731479       0.58054012      -0.92796504        0       0.35479339      -0.15716710       1.08333857      -0.50388384      -0.57602108      -0.23209906
C       -0.18480919      -0.38314587       2.27627182        0      -0.56395920      -0.02211498       0.81695132      -0.52526039       1.13606119       1.32093596
C        0.11790480       0.31317315      -2.18905210        0      -0.62464549      -0.19545495      -0.86086750      -1.56400990       1.50969660      -1.94711435
H        0.50081283      -0.52887988       3.16355896        0       0.00958375       0.15913964       0.06048626      -0.84718543      -0.12999684      -1.18259490
H       -0.99130619       0.37122315       2.57026887        0       0.26596964      -0.32475741      -0.06437791       1.17587066      -0.27628553      -0.26916426
H       -0.79898220      -1.19689691       1.93909299        0       0.02426187       0.26257883      -0.03599691       0.12723839      -1.07287574       0.30643061
H        0.82173383       0.39293513      -3.04121518        0      -0.07437607       0.17457148      -0.27874520      -0.21899235      -0.29313838       0.87109220
H       -0.51975018      -0.63449883      -2.23208618        0       0.08093474      -0.10381763      -0.11082869       1.57858264       1.10119092      -0.18113708
H       -0.68493521       1.15580308      -2.35394812        0      -0.04906255       0.18493977      -0.06746271       1.20936990      -1.10526872       0.10231793
12
Properties=species:S:1:pos:R:3:molID:I:1:momenta:R:3:forces:R:3 Nmols=1 Comp=DMC(1) energy=-589.81591796875 stress="inf -inf inf -inf inf inf inf inf inf" free_energy=-589.81591796875 pbc="F F F"
C       -0.05923923      -0.01662129      -0.05480392        0       0.68824700       0.07808047      -0.80768746       1.29029942      -0.39089352       3.09594297
O       -1.09174300      -0.54784843      -0.28606973        0      -0.68725215      -0.48646076       1.27220312      -1.44815862      -0.60511291       0.69254303
O        0.59865650       0.02398582       1.19179610        0      -0.38319245      -0.75380708       0.50440278      -1.38675046      -0.22688544      -0.71152747
O        0.71105328       0.54610121      -0.90814122        0       0.15485251      -1.02395761      -0.63994450      -0.45356488       0.32989818      -3.01841879
C       -0.21585534      -0.37885250       2.33535724        0      -0.70207060       0.11063760       0.47877260       0.71018815       1.59331810      -0.33743513
C        0.07935828       0.39696179      -2.27609741        0       0.36052186       1.88461138      -0.99136321       1.29279304      -0.23671193       0.43555760
H        0.49883921      -0.60223049       3.16505822        0      -0.04568001      -0.31162373       0.07723115      -0.58394861       0.24184506      -0.59477895
H       -0.84714268       0.56741222       2.60961967        0       0.16591637       0.07013698      -0.05099412       0.66826022      -1.88835526      -0.33188054
H       -0.72955975      -1.29773706       2.04104213        0       0.28504396       0.17433655       0.36220365      -0.41106755       0.25136781       0.39680147
H        0.93337679       0.53223251      -2.96580679        0       0.27136755       0.19405792       0.10713244      -0.63167328       0.26798153       0.22707304
H       -0.22737492      -0.72510424      -2.40361742        0       0.25646833      -0.07131779      -0.15737597       0.06232852       1.95361543       0.18512039
H       -0.71967541       1.20399848      -2.36784645        0      -0.36422237       0.13530609      -0.15458049       0.89129400      -1.29006708      -0.03899802
12
Properties=species:S:1:pos:R:3:molID:I:1:momenta:R:3:forces:R:3 Nmols=1 Comp=DMC(1) energy=-590.0264892578125 stress="inf inf -inf inf inf -inf -inf -inf inf" free_energy=-590.0264892578125 pbc="F F F"
C       -0.01838752      -0.07017702       0.00391343        0      -0.34530374      -1.24730493       1.38548462      -1.94556260      -0.38253641      -1.44034183
O       -1.12047834      -0.57286953      -0.18633180        0       0.14286958       0.66613715       1.52000683       1.61817908       0.74365306       0.19925472
O        0.56172700      -0.01274833       1.19003687        0      -0.69115263      -0.59424592       0.06199207       0.24521971       0.27256382      -0.12434173
O        0.70902061       0.50746787      -1.00885071        0      -0.71109796      -0.40156056      -1.97002871      -0.68682432      -0.38129053       0.93161392
C       -0.21054350      -0.36031563       2.33109887        0       0.42446281      -0.27155425      -1.09208941      -0.68304932       0.15939468       1.15797043
C        0.14041609       0.51002091      -2.33003866        0       1.61349018       0.77535776       0.30648210       0.84695053       0.54475927      -0.13824856
H        0.53058467      -0.66135524       3.08822327        0       0.24801267       0.15407391       0.06450928      -0.11570668       0.54800349      -0.11573595
H       -0.83437714       0.57340596       2.73784652        0      -0.16007965      -0.12304916       0.12422295       1.09290433      -1.93728352      -1.03174973
H       -0.79578386      -1.32200707       2.21149945        0      -0.20639143       0.32947066       0.06029173       0.05602914       1.19345415      -0.30002052
H        1.01307406       0.94846859      -2.94615910        0       0.01387888       0.55014497      -0.17393641      -1.56644726      -0.92232436       0.68110019
H       -0.21623341      -0.49077403      -2.59650839        0      -0.15059741      -0.17170382      -0.43359066       0.62773907      -0.09481806      -0.20531324
H       -0.76913391       1.12535600      -2.44276342        0      -0.17809130       0.33423419       0.14665562       0.51056933       0.25642443       0.38581261
12
Properties=species:S:1:pos:R:3:molID:I:1:momenta:R:3:forces:R:3 Nmols=1 Comp=DMC(1) energy=-589.5006103515625 stress="-inf -inf -inf -inf inf -inf -inf -inf -inf" free_energy=-589.5006103515625 pbc="F F F"
C       -0.02586825      -0.14787474       0.02366685        0       0.60142353      -0.16113978      -0.77141690       0.46108270       1.99618375      -2.36566091
O       -1.11841935      -0.54568449      -0.13701758        0      -1.36721736      -0.29623013       0.06513131      -1.91407669      -1.10339236      -0.95939887
O        0.52587391      -0.05178257       1.19059586        0       0.72803209      -0.01093312      -0.47726621       2.36030364       1.00594068      -1.31659865
O        0.69349456       0.48994087      -1.06565185        0       0.35958476      -0.73381208       1.29964838       1.73520875      -1.50048709       4.12661934
C       -0.18502277      -0.35109957       2.30988043        0      -0.53303379      -0.30655625       0.16592044      -2.93601370      -0.07842314       1.98149538
C        0.18552415       0.54545896      -2.32292649        0      -0.24419622       1.10676057      -0.11416632      -0.10755414       2.50962663      -1.13816655
H        0.62120923      -0.43600775       3.02534577        0       0.22948993       0.00040383       0.34162007      -0.32987678      -0.50596297       0.72852242
H       -0.94733814       0.44431782       2.71187946        0      -0.26769253       0.35367031      -0.02850196       1.43266308      -0.62488866      -0.88332713
H       -0.90634470      -1.22737504       2.17469675        0       0.31191088      -0.08325064      -0.23658430       1.27248514       0.43483853       0.21934384
H        0.84941729       1.15723639      -3.02967487        0       0.13818226       0.13789612      -0.23685011      -0.33330625      -0.94962430       0.93465936
H       -0.00182665      -0.38578948      -2.76762429        0       0.22766376      -0.22953397      -0.32797953      -0.41418687      -1.25045538      -0.47243413
H       -0.64940691       1.20822122      -2.16319722        0      -0.18414731       0.22272514       0.32044514      -1.22672868       0.06664398      -0.85505366
12
Properties=species:S:1:pos:R:3:molID:I:1:momenta:R:3:forces:R:3 Nmols=1 Comp=DMC(1) energy=-589.690673828125 stress="inf inf inf inf -inf -inf inf -inf inf" free_energy=-589.690673828125 pbc="F F F"
C       -0.03189550      -0.12956520      -0.08273758        0      -0.42786564       0.51571034      -1.01153639      -2.73997712      -1.06453228       3.32268119
O       -1.16185219      -0.61102815      -0.17058399        0       0.05570968      -1.31426124      -0.83123482       2.28200006       0.84266841      -0.33610669
O        0.60187257      -0.01793973       1.15739119        0       1.15257099       0.56230641      -0.74730102      -0.58326840      -0.61199069      -0.01852238
O        0.73402350       0.43313059      -0.92221932        0       0.33137988      -0.72286164       2.16752026      -0.45429122       1.23154223      -3.46627760
C       -0.20255076      -0.35665165       2.35107340        0       0.69388376      -0.14862373      -0.52635154      -0.25539088      -0.13599847      -2.98636103
C        0.09583245       0.65046247      -2.34944498        0      -1.03127772       0.76598532       0.62109450       4.20263338       0.57931638       2.13559008
H        0.40085117      -0.39531770       3.19846813        0      -0.15680395       0.14895303       0.36904681       1.20035934       0.07162613       1.12648773
H       -0.87342750       0.50199011       2.42440253        0      -0.23114213       0.28038254      -0.19125927      -0.49870920      -0.56235111       0.25201896
H       -0.59049091      -1.39388279       2.17728437        0       0.01966501      -0.06950676       0.13639754      -0.23094536       0.98228759       0.24615425
H        0.90005514       1.19642960      -2.88205343        0       0.32044651       0.28710576       0.26899177      -0.56942111      -0.35112527       0.35227400
H        0.00272137      -0.31426070      -2.67021481        0      -0.34183652      -0.10215221       0.20167661      -0.37152398      -2.25616789      -1.14579380
H       -0.77755596       1.17664750      -2.35603165        0      -0.38472987      -0.20303782      -0.45704443      -1.98146534       1.27472448       0.51785576
12
Properties=species:S:1:pos:R:3:molID:I:1:momenta:R:3:forces:R:3 Nmols=1 Comp=DMC(1) energy=-589.4995727539062 stress="-inf inf inf inf -inf -inf inf -inf inf" free_energy=-589.4995727539062 pbc="F F F"
C       -0.11776842      -0.13602911      -0.06382893        0       0.01931009       0.22659975       1.71775768       4.91385126       1.46762156       2.24570990
O       -1.11115203      -0.69351416      -0.24675771        0       0.26877370      -1.79790408      -1.15835903      -2.49497247      -1.12127674      -0.12866759
O        0.64629455       0.00681993       1.13016090        0       0.06941699       0.46746365      -0.34311489      -2.72107172      -0.90331745       0.33984756
O        0.71747723       0.44161971      -0.90780839        0      -1.48075649       0.48334096      -1.65107089      -2.44442677       0.27107909      -1.82563925
C       -0.14947989      -0.28723613       2.31315397        0       0.79306827       1.11627574      -0.00759552      -0.21515864      -2.21883154      -1.47361076
C        0.06599018       0.64916886      -2.23369720        0      -0.13761254      -1.01930591       1.89865991       3.79380560       0.58273411       1.23048699
H        0.41323604      -0.27078635       3.19684751        0       0.30022700       0.20684052      -0.41475008       1.12526929       0.63050491       0.79950148
H       -1.03624517       0.27624309       2.33742673        0      -0.43847938      -0.18009788      -0.20530313      -0.79308867       1.47047496      -0.00424811
H       -0.58169911      -1.33592201       2.30927223        0      -0.05733867      -0.12577471       0.01974541       0.78090185       0.46837646      -0.54756075
H        0.86057901       1.26678505      -2.63637059        0       0.14420282       0.12382097      -0.13842824       0.10161793      -0.26903832      -0.61213201
H       -0.12954432      -0.27270895      -2.66007342        0       0.14772866       0.36768814      -0.11453581       0.42815948      -2.23480439      -0.86072350
H       -0.80061252       1.14894893      -2.44201221        0       0.37145956       0.13105285       0.39699459      -2.47488737       1.85647678       0.83703583
12
Properties=species:S:1:pos:R:3:molID:I:1:momenta:R:3:forces:R:3 Nmols=1 Comp=DMC(1) energy=-589.4586181640625 stress="-inf inf -inf inf -inf inf -inf inf -inf" free_energy=-589.4586181640625 pbc="F F F"
C       -0.07377899      -0.13053062       0.04648230        0      -0.51071863      -0.58831479      -0.61060023      -3.14384389      -1.84186232      -5.32436037
O       -1.08455378      -0.77618708      -0.28818350        0       1.45013050      -0.15975012       0.57082077       2.11579657       1.41642118       1.99413300
O        0.58599635       0.02714778       1.10795332        0      -1.50777592       0.17047937      -0.45811422       0.54596376       0.40691733       0.54203701
O        0.60631941       0.47818583      -0.95645746        0      -0.60559489       0.07699744       0.54033102       3.58354354      -0.65428877       4.10046721
C       -0.12299592      -0.26853821       2.28958259        0       0.56358181       0.20045365       0.32174924       1.95373487       0.06156054       0.16675246
C        0.13750882       0.62594307      -2.18175704        0       0.23470021       0.21241216      -1.14964943      -3.59713411       0.09038222      -1.67835999
H        0.65193953       0.05125815       2.96918363        0      -0.34912000       0.16664504      -0.10991137      -0.29275280      -0.38815755       1.25312197
H       -0.98777942       0.30461101       2.38271965        0       0.17614481       0.22394840       0.43743253      -1.53118038       1.02001166       0.23841639
H       -0.35715271      -1.30203779       2.25209427        0       0.27758836      -0.25700624       0.23054151      -0.22048327      -1.11973786       0.59634525
H        0.82614655       1.06262527      -2.83152178        0       0.06922073      -0.00924598      -0.35551064       1.27201366       1.29243588      -0.63641989
H       -0.08854475      -0.30955406      -2.73924037        0      -0.20242422       0.26745163       0.39287315      -0.59436989       0.12870121       0.61880511
H       -0.72641184       1.31533179      -1.91172791        0       0.40426725      -0.30407057       0.19003767      -0.09128785      -0.41238335      -1.87093830
12
Properties=species:S:1:pos:R:3:molID:I:1:momenta:R:3:forces:R:3 Nmols=1 Comp=DMC(1) energy=-589.45263671875 stress="-inf -inf inf -inf -inf -inf inf -inf inf" free_energy=-589.45263671875 pbc="F F F"
C       -0.12072822      -0.11199574      -0.06838325        0       0.91527041       1.07759616      -0.94451382       1.95115912      -0.07375622       2.63411593
O       -1.04057464      -0.79563719      -0.21660685        0      -1.52830514      -1.86821218       0.79430219      -3.45693779      -1.82192063      -0.62636960
O        0.52814925       0.05025645       1.09864063        0      -0.17868701       0.36206133       0.43220457       0.23695350      -0.02038157       1.73068607
O        0.64438242       0.45944758      -0.89929017        0       1.71742894       0.47798888      -0.19754725       0.75152302       2.42828274      -4.49278784
C       -0.09069154      -0.28145389       2.34843911        0      -0.07588608       0.24959150       1.48056120       1.38658988       2.68694544       0.66859150
C        0.12162623       0.65250035      -2.30425007        0      -0.96752354      -0.02655020      -0.87391666      -3.66625595      -1.58337939       2.59360242
H        0.55010826       0.01709213       3.22697139        0      -0.22034317      -0.12476433      -0.14550895       0.25791854       0.74158704      -1.01740932
H       -0.99045807       0.26577428       2.47712869        0       0.03550612      -0.40471728      -0.33046030      -1.08153272       0.47054553      -0.30995777
H       -0.16426277      -1.25178380       2.62658951        0       0.03170466       0.05659676       0.32637222      -0.61558956      -3.52177191      -0.59174573
H        0.81000837       1.06898465      -2.93920134        0       0.03587979      -0.06120008       0.11377832       1.82346559       0.50731504      -0.94959438
H       -0.27988928      -0.38937676      -2.56493697        0       0.11180524       0.23932568      -0.10890697       0.75268030       1.29174542      -0.22901466
H       -0.82693021       1.35889184      -2.34401338        0       0.12314979       0.02228377      -0.54636455       1.66002607      -1.10521138       0.58988398
12
Properties=species:S:1:pos:R:3:molID:I:1:momenta:R:3:forces:R:3 Nmols=1 Comp=DMC(1) energy=-589.11279296875 stress="inf inf inf inf inf inf inf inf inf" free_energy=-589.11279296875 pbc="F F F"
C       -0.09449672      -0.12478196      -0.07692903        0      -0.72892221      -1.55572063       0.25954152      -0.33102643      -1.34147763       1.39469671
O       -1.09841031      -0.85428921      -0.18358153        0       0.93783867       1.09943691       0.61821667       3.03416753       2.63673282      -0.62684971
O        0.52317109       0.03439604       1.14807578        0      -0.03765878      -0.66270349       0.95096836      -0.69159150       0.29628170      -0.61361086
O        0.72735772       0.55935436      -1.01448687        0      -0.14718022       1.95452649      -2.41957880      -4.24717140      -2.09747791       1.60108840
C       -0.15157598      -0.28054133       2.46937986        0      -1.28234507      -0.24761974       0.49780355       1.24280500       2.36398172      -2.41773057
C        0.09618031       0.63676780      -2.32790541        0       1.55549782      -0.80404708      -0.21035938      -1.09205246      -0.36579734      -0.43177366
H        0.58594597       0.28469788       3.14408925        0      -0.51162147       0.03770758      -0.24080980      -1.75233519      -1.01155925      -0.64957398
H       -1.21218377       0.02296077       2.33339402        0       0.12718999      -0.15409767       0.34865437       0.69496220       0.28153953       0.76175922
H       -0.11424165      -1.32092429       2.47774568        0       0.10647616       0.42724298      -0.22946674       0.16728845      -1.64243066       0.79055631
H        0.99933505       0.96061743      -2.75259933        0      -0.06662904      -0.24171583       0.04081941       0.64603031       0.86977565      -1.95145857
H       -0.19548581      -0.38404190      -2.81791147        0       0.17584819       0.07372130       0.06085161       0.38648987       1.44627476       1.26544333
H       -0.81588743       1.39208397      -2.48971305        0      -0.12849405       0.07326917       0.32335924       1.94243324      -1.43584359       0.87745321
12
Properties=species:S:1:pos:R:3:molID:I:1:momenta:R:3:forces:R:3 Nmols=1 Comp=DMC(1) energy=-589.0210571289062 stress="inf -inf -inf -inf inf -inf -inf -inf inf" free_energy=-589.0210571289062 pbc="F F F"
C       -0.05574435      -0.18775178       0.00983034        0       2.08317535       0.60523229       1.56596663       0.08053827       1.75483251      -1.76879334
O       -1.06260210      -0.78772616      -0.17981374        0      -0.43577309      -0.02537948      -0.58069961       0.04870820      -0.17351937      -0.64419490
O        0.50348476      -0.00978821       1.18084503        0      -0.09197948      -0.27936434       0.59535808       0.24891782       0.72919142       0.50017333
O        0.63270634       0.61734282      -1.06518416        0      -2.45634734       0.69017532       0.39801721       0.66708517      -1.58817530       3.94706249
C       -0.19798226      -0.30048724       2.41764080        0       0.10770916      -0.32761054      -0.93887542      -0.06435215       1.74970818       1.85665488
C        0.21025168       0.61402876      -2.37309619        0       1.76504776      -0.64920653      -1.42467998      -2.70056868      -0.83560258      -0.27209413
H        0.27772744       0.44381932       3.29439536        0      -0.25377336      -0.26341080       0.06631168      -0.36373585      -1.82620227      -1.99633932
H       -1.30589206       0.02722891       2.61579840        0       0.15260947      -0.19848015      -0.07617561       1.55263972      -0.81982970      -1.37729025
H        0.00083764      -1.37128611       2.59494492        0      -0.22875893       0.28507277       0.44008550      -0.33458671       0.54995376       0.25726172
H        0.90285097       0.97134636      -3.16261781        0      -0.45962084       0.11544949      -0.10383252      -0.10526729      -0.14083400       0.83350182
H       -0.07853650      -0.49625506      -2.60903858        0       0.13920519      -0.21513551       0.07304688       0.12775427       1.80858719      -0.14802727
H       -0.67449101       1.35880061      -2.26102870        0      -0.32149387       0.26265748      -0.01452285       0.84286749      -1.20811033      -1.18791533
12
Properties=species:S:1:pos:R:3:molID:I:1:momenta:R:3:forces:R:3 Nmols=1 Comp=DMC(1) energy=-589.2239990234375 stress="-inf inf inf inf inf -inf inf -inf inf" free_energy=-589.2239990234375 pbc="F F F"
C        0.01776568      -0.15417921      -0.03628373        0      -0.48931196       0.39012164      -2.28728257      -1.76370978       0.65822887       1.19444895
O       -1.00842089      -0.75952807      -0.16486740        0       1.53690028       0.99961139       0.66969704      -0.30902505      -0.96026266      -0.78249741
O        0.52124567      -0.04031625       1.25489804        0       1.06432338      -0.32860325       1.02921530       2.52611256       0.45354453      -2.49317002
O        0.52668753       0.64907025      -0.95030921        0      -0.86356492       0.44579897       2.47437617       1.16138005       0.30042517      -1.71327269
C       -0.23509118      -0.33706546       2.34997157        0      -1.32818050      -1.03036327      -0.53094716      -1.42021322       0.94907701       1.94691348
C        0.21650263       0.58863970      -2.44136220        0       0.32049728      -0.21395368      -0.00656037       1.15634394      -1.52247536       0.38627034
H        0.24915790       0.36279114       3.22520564        0       0.04588827       0.30173698      -0.08832408      -1.61563134      -1.06898904      -1.85172510
H       -1.35270717      -0.18664643       2.00476045        0      -0.00476148      -0.27637881      -0.61428261       1.62282050      -0.04694858       1.51223361
H       -0.11247997      -1.33460709       2.81435438        0      -0.15962499       0.14784685      -0.31493248      -0.09688982       0.16795808      -0.74532163
H        0.94159957       1.08306502      -3.17311557        0       0.42967417      -0.09142919       0.50984231      -0.15032065      -0.46067435       1.51835561
H        0.13706471      -0.49643620      -2.76910967        0       0.20999452      -0.39838073      -0.35072171       0.10235310       1.06684399       0.74840665
H       -0.68135596       1.11079342      -2.61191203        0      -0.76183403       0.05399310      -0.49007984      -1.21322060       0.46327209       0.27935821
12
Properties=species:S:1:pos:R:3:molID:I:1:momenta:R:3:forces:R:3 Nmols=1 Comp=DMC(1) energy=-588.4462280273438 stress="-inf inf inf inf -inf inf inf inf inf" free_energy=-588.4462280273438 pbc="F F F"
C        0.00574161      -0.11516392      -0.06887535        0       0.06176704       0.52665940       1.56106461      -0.59254968      -0.60995352       3.66898942
O       -0.97796845      -0.77836468      -0.15244999        0      -0.62194160      -1.20350949      -0.43426747      -0.48854423      -0.90648520      -0.97931194
O        0.63106101      -0.03598793       1.26690860        0       2.16697199       0.10712250      -0.88288441      -1.44324255       0.15975976      -1.92416263
O        0.48572221       0.69263843      -0.91520902        0       0.07861326       1.27466014      -0.61985691      -0.31630892       0.54833180      -0.54108667
C       -0.31945302      -0.37788369       2.27397981        0      -0.90274290      -0.85765561      -1.81545375      -1.50868022       1.20381284       0.54022646
C        0.18981068       0.56141649      -2.40619728        0       0.23536596      -0.14436394       1.67256218       6.98273468      -0.77999932       4.40465307
H       -0.30240244       0.48376410       3.14041186        0      -0.63954526       0.23420862       0.44686833       0.30457374      -2.33535695      -1.74109387
H       -1.44869796      -0.32216551       1.88554166        0      -0.58416817       0.12057303       0.09485706       2.04149032       0.12102088       0.78908092
H       -0.15778333      -1.46296619       2.49140452        0       0.07758979       0.10100961      -0.06951354      -0.01206049       1.02559495       0.56362146
H        1.16505970       1.10022104      -2.45462302        0       0.05774631       0.18961135       0.00208327      -0.45619428       0.20524243      -3.07646465
H        0.26815750      -0.43146081      -2.73739532        0       0.09194928      -0.46252370       0.06027619       0.36565748      -1.60946965      -0.10456823
H       -0.61235983       0.93265458      -2.78634652        0      -0.02160572       0.11420810      -0.01573557      -4.87687540       2.97750235      -1.59988308
12
Properties=species:S:1:pos:R:3:molID:I:1:momenta:R:3:forces:R:3 Nmols=1 Comp=DMC(1) energy=-588.7774047851562 stress="inf inf -inf inf -inf -inf -inf -inf -inf" free_energy=-588.7774047851562 pbc="F F F"
C       -0.03228530      -0.11754094       0.09116162        0      -0.33867221      -0.09374679       0.82339946       0.67798865       0.26752138      -4.13589287
O       -0.97166121      -0.84807131      -0.17135429        0       0.97119807      -0.79030222      -0.50902247       1.26546764       0.83632505      -0.22463042
O        0.67337663      -0.02942368       1.19266690        0      -1.11271795      -0.34022579      -0.77895081      -4.00503445      -0.79974777       0.57672626
O        0.46529178       0.77306449      -0.93265080        0      -0.42053146       1.24933459       0.04636803       1.10740936       0.23742902       4.12482309
C       -0.41930637      -0.40102431       2.14308861        0       0.01763653      -0.83441292      -0.98663401       2.14138556      -0.05066347       1.43667006
C        0.30127622       0.57118381      -2.25888123        0       0.97955224       1.13730812       1.23053618       0.57947791       1.10508728      -1.83580887
H       -0.32078742       0.20902706       3.00908109        0       0.50088659       0.41288946       0.37261127       0.01284924       1.11956739       0.47714981
H       -1.42966889      -0.27943961       1.73514606        0      -0.35810827      -0.09322232      -0.80310320       0.72460902      -0.25550467       0.44063532
H       -0.16527414      -1.37962396       2.57881949        0      -0.17944530       0.09453651       0.01865874      -0.45211995      -0.14767873      -0.81907266
H        0.88506138       1.07709251      -3.07210368        0      -0.26483019      -0.34763734      -0.52740704       1.29101765      -0.42199880       1.14601982
H        0.21319391      -0.42481649      -2.45168778        0      -0.17891339      -0.15415780       0.36149286       0.12081559      -3.22924876      -0.79635692
H       -0.54753193       1.07281819      -2.52062022        0       0.38394533      -0.24036351       0.75205099      -3.46386552       1.33891165      -0.39026323
12
Properties=species:S:1:pos:R:3:molID:I:1:momenta:R:3:forces:R:3 Nmols=1 Comp=DMC(1) energy=-589.291259765625 stress="-inf -inf -inf -inf -inf -inf -inf -inf -inf" free_energy=-589.291259765625 pbc="F F F"
C       -0.04924455      -0.10718082      -0.00381046        0      -0.29325271       0.04933102      -2.74819785       0.00767016      -0.07709086      -1.41378999
O       -0.92217029      -0.91169057      -0.21173256        0       1.23597890      -1.31564543      -1.23726684       0.07309723       0.51387441      -1.35031915
O        0.55578727      -0.07127433       1.15129958        0      -1.76379293      -0.27711297      -0.81693715       1.71344852       0.27917647      -0.49239087
O        0.46834753       0.84822448      -0.81794881        0       0.74442245       1.04640464       2.53833925       0.76208395      -0.51174051       0.35736156
C       -0.32067080      -0.41882377       2.17470466        0       1.70958479      -0.63470782       1.06633149      -1.69784713      -2.44611096      -2.12936449
C        0.28432374       0.63491781      -2.22346826        0      -2.58257879       0.96249472       0.95429546      -2.11829615       0.97071064       0.67806971
H       -0.15860921       0.32104083       2.81264115        0       0.06372742       0.31562553       0.42570729       0.45770690       2.44733453       4.08455658
H       -1.31459959      -0.33630484       1.75730885        0      -0.47925063       0.13705227       0.15240640      -0.98433000       0.51330781       0.17133862