12
Properties=species:S:1:pos:R:3:molID:I:1:momenta:R:3:forces:R:3:charge:R:1 Nmols=1 Comp=DMC(1) energy=-589.6902849308991 dipole="0.0476569101485946 0.06870959653949532 0.21172223016946487" free_energy=-589.6902849308991 pbc="F F F"
C       -0.06354920       0.02615914       0.03273994        0      -0.17458115      -1.75254902      -1.02410854      -1.10480465      -1.74935772      -2.56668991       0.47127016
O       -1.09745824      -0.56171083      -0.33384407        0      -0.76814251       0.59541795      -0.54097740       1.82966510       1.39045630       2.85528675      -0.46883014
O        0.59339279       0.04178514       1.16893291        0      -0.65275346       0.18726682       0.87693761      -0.82852780       0.42618089       0.49198597      -0.23200909
O        0.70731479       0.58054012      -0.92796504        0       1.03285865       0.08815055       0.03785203      -0.37199226      -0.70811741      -0.28837154      -0.25090475
C       -0.18480919      -0.38314587       2.27627182        0       0.53232974       0.95793739       0.48453068      -0.57910020       1.05533883       1.25905931       0.02408755
C        0.11790480       0.31317315      -2.18905210        0      -0.32424603       0.27895356       0.08217425      -1.94280044       1.45788527      -1.67289732       0.03147711
H        0.50081283      -0.52887988       3.16355896        0       0.18426053      -0.01974371      -0.02048951      -0.82243213      -0.17215393      -1.20744938       0.08322969
H       -0.99130619       0.37122315       2.57026887        0      -0.04782048      -0.26004558       0.07346317       1.19574539      -0.26180058      -0.29331200       0.05368733
H       -0.79898220      -1.19689691       1.93909299        0       0.05287793      -0.12287014       0.15224342       0.14298628      -1.04896365       0.29163103       0.08471066
H        0.82173383       0.39293513      -3.04121518        0       0.09123747       0.12896480      -0.25293726      -0.07668032      -0.15544425       0.93178879       0.06977969
H       -0.51975018      -0.63449883      -2.23208618        0       0.36849154      -0.11025786      -0.10267796       1.35192819       0.97979173       0.12089941       0.08751433
H       -0.68493521       1.15580308      -2.35394812        0      -0.29451222       0.02877523       0.23398952       1.20601285      -1.21381549       0.07806889       0.04598747
12
Properties=species:S:1:pos:R:3:molID:I:1:momenta:R:3:forces:R:3:charge:R:1 Nmols=1 Comp=DMC(1) energy=-589.9687929124918 dipole="0.05499041371403552 -0.05066219020745675 0.04001183001492543" free_energy=-589.9687929124918 pbc="F F F"
C       -0.04014203      -0.10622744      -0.07112068        0       1.86877908      -0.22753736      -0.13187379       1.29586502       2.18401809       2.31653099       0.47841539
O       -1.11844814      -0.52074886      -0.31562125        0      -0.92962540       0.32937719       0.33529779      -0.83276018      -1.05011632       0.25703928      -0.41355659
O        0.51848325       0.04222190       1.19210939        0      -1.25572425       0.19228520      -0.12569449      -0.87572251      -0.47176573      -1.34997875      -0.28012813
O        0.73968142       0.55220246      -0.94503969        0      -0.02036907      -1.25009164      -0.26713987      -0.66797105      -0.84323183       0.13710755      -0.26251216
C       -0.21209738      -0.36653716       2.34064685        0      -0.59761281      -0.60151787       0.72296372       0.95471121       0.37857629       1.46326687       0.03612154
C        0.10602600       0.40810988      -2.21703212        0       0.42713750       0.49806869      -1.00629662       0.81076298      -0.39025328      -0.64600368       0.02731566
H        0.60919631      -0.45971701       3.11642729        0       0.24131649       0.18698957       0.21003285      -0.82933059       0.48845116      -0.51320200       0.06968521
H       -0.99051957       0.37876689       2.70313326        0       0.10224198       0.16939637       0.14908982       0.88866954      -0.81219937      -0.73435793       0.05997116
H       -0.60526657      -1.37491510       2.31448849        0       0.24838112       0.06462415       0.34778459      -0.48603664      -0.04889531      -0.63375391       0.06393652
H        0.88775844       0.67273617      -2.96409713        0       0.17787093       0.62651759      -0.10176693      -0.81861716       0.20511062       0.39622419       0.07648925
H       -0.09577328      -0.68813574      -2.31352217        0       0.22511714      -0.08205660      -0.04301974      -0.27744553       0.85922308      -0.38909886       0.06859094
H       -0.83463744       1.01119959      -2.23557966        0      -0.48751271       0.09394472      -0.08937731       0.83787492      -0.49891741      -0.30377374       0.07567122
12
Properties=species:S:1:pos:R:3:molID:I:1:momenta:R:3:forces:R:3:charge:R:1 Nmols=1 Comp=DMC(1) energy=-589.9095620598314 dipole="0.11732513434129102 0.07267540303302611 0.15742882318654738" free_energy=-589.9095620598314 pbc="F F F"
C       -0.02739276      -0.09332209      -0.01089528        0      -1.84153160       0.45384256       0.46580883      -0.89792696       0.62570687      -0.98651539       0.49375721
O       -1.10824281      -0.50873336      -0.25980924        0       0.98305824      -0.15590957       1.82137091      -1.96181645      -1.25197044      -0.12584001      -0.47021481
O        0.46066213       0.05236075       1.17694524        0      -0.41145066       0.02447690      -0.23731772       1.65340868      -0.26017754       1.64922956      -0.26456392
O        0.72411054       0.43092306      -0.97842673        0      -0.56477570      -2.08537602      -0.71679086       0.83929761       0.42233285      -0.42522752      -0.28929443
C       -0.18792720      -0.39885986       2.40706414        0       0.90488273       0.22916128      -0.08318864       0.52121599       3.21149207       0.08588286       0.02468194
C        0.15781560       0.46877297      -2.32859685        0       1.29667513       0.56797959      -0.30629230       0.30609820      -1.24195715       1.49465248       0.02208485
H        0.57129684      -0.13784169       3.19287454        0       0.01780871       0.24103494       0.17507041      -0.34520369      -1.00409232      -0.72219888       0.08531115
H       -0.95091635       0.39199517       2.62367095        0      -0.29050281      -0.21612772      -0.20694414      -0.13291360      -0.86220367      -0.29167155       0.06973533
H       -0.59976476      -1.37602482       2.41336536        0       0.05151929       0.26266327      -0.05556143      -0.01384970      -0.64750858      -0.20170435       0.08821774
H        0.77453629       1.17858707      -2.83410663        0       0.00605441       0.43623218      -0.10411463       0.76221080      -0.30987867      -0.63386426       0.09004437
H        0.04330559      -0.59096302      -2.67203868        0       0.20611675       0.09559247      -0.79996529       0.50438691       1.03125151      -0.17715083       0.07669243
H       -0.80765154       0.90393619      -2.31696204        0      -0.35785447       0.14643012       0.04792486      -1.23490778       0.28700506       0.33440788       0.07354814
12
Properties=species:S:1:pos:R:3:molID:I:1:momenta:R:3:forces:R:3:charge:R:1 Nmols=1 Comp=DMC(1) energy=-589.6775311540783 dipole="0.15149190331640464 0.24989899723651818 0.04188160506783197" free_energy=-589.6775311540783 pbc="F F F"
C       -0.08614766      -0.02191349      -0.00404299        0       0.06718394       0.37910593      -0.17514070      -1.89680861      -2.52281881      -0.42276692       0.47806345
O       -1.16164625      -0.57711190      -0.18526330        0      -2.43878874      -1.58487215       0.92092862       0.62277974       1.13574415       0.57185806      -0.46286394
O        0.48861314       0.08813284       1.20373848        0       1.72696246       1.68190057       0.82237404       1.73313221       0.95958334      -1.04189439      -0.25971087
O        0.70213103       0.27164868      -1.03918514        0       0.22493134      -2.53047856      -0.93735275       1.87984557       0.55102114       0.69966304      -0.25802297
C       -0.14375548      -0.27854838       2.41204789        0      -0.15627890       1.34371959      -0.61901318      -1.29496095      -1.88554936      -0.81778049       0.03408053
C        0.20802785       0.50779019      -2.35600432        0      -0.00348252       0.25377659      -0.02321927       1.75049380       0.02769069      -0.13600988       0.02757184
H        0.50969698      -0.10615234       3.29129718        0       0.08814047       0.07175615       0.24001102      -0.51385217       0.24863956      -0.92858750       0.08601026
H       -1.12037751       0.20734998       2.36120978        0      -0.13893427      -0.07688241      -0.02877826       0.03883701       0.29168215       0.88122591       0.07370633
H       -0.41652621      -1.39360512       2.35014593        0       0.33700576       0.28857966      -0.06393330       0.54114840       1.10873331       0.23682952       0.05787325
H        0.77030552       1.31222652      -2.82928899        0       0.17010812       0.43330493      -0.01363375       0.13596581       0.60836538       0.65145464       0.06873956
H        0.33772775      -0.24376279      -3.12312459        0       0.23789219       0.04762844      -0.15032854      -0.13501910      -1.17189805       0.58293060       0.07121744
H       -0.76826914       0.75897948      -2.20477499        0      -0.11473985      -0.30753875       0.02808607      -2.86156172       0.64880650      -0.27692259       0.08333513
12
Properties=species:S:1:pos:R:3:molID:I:1:momenta:R:3:forces:R:3:charge:R:1 Nmols=1 Comp=DMC(1) energy=-589.3417384175048 dipole="-0.08071922517178673 0.22707544269413038 -0.17118419292825143" free_energy=-589.3417384175048 pbc="F F F"
C       -0.16826799      -0.07497746      -0.05294849        0      -1.14274779      -1.67227078      -0.38141571       3.00467359      -0.55122902       1.17585364       0.45670165
O       -1.23955183      -0.61545453      -0.08924681        0       0.07493718       0.48947993       1.95555660       1.38904940       1.38771521       0.10116436      -0.36206257
O        0.60821737       0.21473072       1.21382723        0       0.71550661       2.02716947      -0.47220102      -3.80564966      -0.60049782      -2.83785411      -0.31627274
O        0.74055684       0.13975140      -1.07123384        0      -0.12573942      -1.68541706       0.02720389      -2.32266037       0.55026664       1.61542604      -0.27545207
C       -0.17785471      -0.19987926       2.35485235        0       0.14076617       0.50727497      -1.23202368       2.07318426      -1.61362231      -0.50948023       0.02886982
C        0.20787115       0.54240544      -2.38194346        0      -0.23344578      -0.07599403       0.02566396       1.12522130      -2.79000660       1.51245722       0.00969948
H        0.41917874       0.20899604       3.16863865        0       0.16156300       0.53285435      -0.02299882       0.12073072      -0.56990483       0.26399688       0.07711337
H       -1.16401258       0.17740001       2.50434569        0      -0.04232377       0.00833171      -0.00465400      -0.69959965       0.31606401      -0.75870422       0.06378575
H       -0.17754893      -1.35482404       2.26549277        0       0.11006177       0.08717080      -0.00681516      -0.21087102       1.65015241       0.76993714       0.05575922
H        0.66782294       1.46386615      -2.52664599        0       0.00588942       0.06257170       0.39357213       0.79504070       1.32730282      -0.89556380       0.09490619
H        0.53538916      -0.32853940      -2.97691836        0       0.16455239      -0.07591151      -0.06155811      -0.15234291       0.87724764      -0.49493699       0.09019940
H       -0.84045500       0.61540036      -2.36377945        0       0.17098020      -0.20525956      -0.22033007      -1.31677636       0.01651185       0.05770407       0.07675250
12
Properties=species:S:1:pos:R:3:molID:I:1:momenta:R:3:forces:R:3:charge:R:1 Nmols=1 Comp=DMC(1) energy=-589.6037023562706 dipole="0.1942067097443745 0.18700608960470969 -0.18979976365845666" free_energy=-589.6037023562706 pbc="F F F"
C       -0.07377516      -0.19453388      -0.02170858        0       2.11654183      -0.99671816       1.21641593      -2.53260365       0.98079789       1.12318388       0.47889154
O       -1.23507408      -0.57269534       0.00014144        0       0.28762446       0.88807554       1.27885643       1.86957695       0.14164327      -0.42460940      -0.44290357
O        0.54263270       0.28555867       1.11404494        0      -2.16496402       0.47218549      -2.31115428      -0.11152565      -1.41973790      -1.59358924      -0.25986008
O        0.69031158       0.04886276      -1.03892569        0      -1.16997353      -1.48392456       0.44479676       1.16278152       0.43867296      -1.71677441      -0.24276840
C       -0.12205229      -0.09485446       2.25676612        0       0.60382128       1.41299359      -0.83242038      -1.10794817      -2.67025456       0.83853477       0.04174986
C        0.20639452       0.49832381      -2.32869768        0       0.02818555      -0.73310351       0.46985512       1.33625111      -0.47911188      -0.51817681       0.02331659
H        0.37863520       0.32529733       3.04093262        0       0.05787650       0.13794683       0.18597047       1.46310570       1.42938065       2.08286156       0.07335943
H       -1.14856691       0.22441044       2.30848272        0       0.15194872       0.07585473      -0.45302880      -0.57817880       0.15599635      -0.38239308       0.06279360
H       -0.13229246      -1.23464572       2.55603051        0       0.15863581       0.08986721       0.12560228       0.12286614       1.53082411      -1.24470056       0.03486702
H        0.60775021       1.46976017      -2.57656062        0      -0.29880527      -0.10949120      -0.07449324      -0.16654089       0.83710652       0.85722193       0.07760417
H        0.60362879      -0.01846076      -3.21790406        0      -0.11733757       0.24992570      -0.19598138       0.13352259      -1.05172257       0.75442906       0.07168683
H       -0.83485970       0.44519987      -2.40398075        0       0.34644625      -0.00361164       0.14558108      -1.59130686       0.10640517       0.22401229       0.08126301
12
Properties=species:S:1:pos:R:3:molID:I:1:momenta:R:3:forces:R:3:charge:R:1 Nmols=1 Comp=DMC(1) energy=-589.3368525113519 dipole="0.1683386091928084 0.17259035904972125 0.043678246513503105" free_energy=-589.3368525113519 pbc="F F F"
C       -0.07629055      -0.24797417       0.02268113        0      -1.10981590      -0.19724084      -1.18071503       0.31090387       1.91910787      -2.71228931       0.50802745
O       -1.19814461      -0.53326842       0.06729706        0      -1.02064529       0.09203200       1.40181794      -4.45840681      -2.33381841      -0.87408277      -0.45319342
O        0.51121440       0.26756167       1.00233060        0       1.64795968       0.09549341      -0.26701515       3.99514930       1.03663780       3.17838639      -0.24369060
O        0.65979950      -0.02333641      -1.06160661        0       0.69617098      -1.16504231      -0.80678479       2.15386426      -0.53432387       0.30455090      -0.31411385
C       -0.07169136       0.02899035       2.26163893        0      -0.14015693       1.88787862       0.27799601      -2.26486473      -2.97314348      -1.51708215       0.02094031
C        0.20756350       0.45208955      -2.30819220        0      -0.66969121      -0.42407223      -0.02929217      -1.07226427      -1.60829534       0.80412687       0.02923549
H        0.30790828       0.68864603       2.94642045        0      -0.13290766       0.49508714      -0.32661688       1.19662340       1.01625217       1.62883957       0.09352795
H       -1.14362009       0.26202246       2.07123531        0       0.00344228      -0.01062597       0.17788704       0.15491606      -0.26716401       0.67021140       0.07814934
H       -0.01478199      -1.13112530       2.47633727        0       0.14033181      -0.14312872      -0.16368905       0.08702678       2.21087914       0.10693271       0.05900596
H        0.47539984       1.46553541      -2.34841982        0       0.08017001      -0.20069802       0.35357761       0.75694110       1.26266287      -0.59466199       0.07642654
H        0.63412810      -0.24114656      -3.03022297        0       0.13102053      -0.38078745       0.39428324      -0.14109120       0.48295322      -0.37722014       0.07966789
H       -0.86764326       0.41135877      -2.24486632        0       0.37412171      -0.04889562       0.16855123      -0.71879777      -0.21174797      -0.61771148       0.06601695
12
Properties=species:S:1:pos:R:3:molID:I:1:momenta:R:3:forces:R:3:charge:R:1 Nmols=1 Comp=DMC(1) energy=-589.5161003803852 dipole="0.0673288552192332 0.2671910106072714 -0.1865284241234365" free_energy=-589.5161003803852 pbc="F F F"
C       -0.15575236      -0.18709957      -0.08013950        0      -0.96144222       1.34708506      -0.50251477      -0.00900941      -0.36237323       3.24930061       0.46299408
O       -1.32007563      -0.56805652       0.11160389        0      -1.34429644      -1.01987804      -0.40417413       3.64830405       1.29556292      -1.94835563      -0.41163644
O        0.63610862       0.24261104       1.02177667        0       1.36488944      -0.51023499       0.49227902      -3.04870044      -0.74164728      -1.31209204      -0.29010968
O        0.74213077      -0.09898065      -1.06900183        0       0.70899444      -1.29553159       0.87948207      -2.08481933      -0.32301413       0.70282011      -0.24669468
C       -0.11075025       0.18220954       2.23920470        0      -0.06122658       2.09989165      -0.72049601       1.14303489      -1.91937564       0.47621596       0.02300655
C        0.18534461       0.38690828      -2.26694600        0       0.08973690      -0.56686006       0.81437087       0.75179011      -0.87134371      -1.02991916       0.02287159
H        0.34909365       0.96503506       2.77489969        0      -0.06758113       0.03335058      -0.03032170       0.22272919       0.78311563       1.14010216       0.08074300
H       -1.20799082       0.26388018       2.23623728        0      -0.12222273       0.08491090      -0.17412079       0.56579296       0.04882648      -0.65404666       0.07752323
H        0.18102833      -0.83352182       2.67176530        0       0.27046355       0.10299631       0.62755387      -0.59386743       1.15021803      -0.03587919       0.05686556
H        0.66548593       1.34226702      -2.41058621        0      -0.06334336      -0.28228122      -0.30808963      -0.44450000       0.68533609      -0.20756532       0.07832672
H        0.60911382      -0.27645462      -3.03218555        0      -0.16620785       0.10270008      -0.47917447      -0.47136212       0.04777682      -0.29606610       0.07290842
H       -0.90879677       0.36658437      -2.26156989        0       0.35223599      -0.09614868      -0.19479433       0.32060754       0.20691803      -0.08451475       0.07320165
12
Properties=species:S:1:pos:R:3:molID:I:1:momenta:R:3:forces:R:3:charge:R:1 Nmols=1 Comp=DMC(1) energy=-589.4457778920143 dipole="0.007502359033139385 0.38849862671898183 0.030613573206741934" free_energy=-589.4457778920143 pbc="F F F"
C       -0.21118622      -0.10453677       0.01365144        0       0.17292040       0.22998076       2.22887459       3.50216698      -1.98527751      -0.83202508       0.48092859
O       -1.29618879      -0.57853520       0.03476628        0       1.48405503       0.24804925      -1.80207057      -0.54490469       0.99887401      -0.14060110      -0.38873202
O        0.63949986       0.16533274       1.01912100        0      -1.22736654      -1.35389912      -0.54197133      -1.18512816       0.12322280      -0.07464854      -0.23107219
O        0.70053980      -0.16118076      -1.02080630        0      -2.11967292       0.07907256      -0.06138841      -0.88921216       0.69065325      -0.55830138      -0.27465962
C       -0.05484877       0.29218100       2.19948957        0       0.95138583       1.30693224       0.63947155      -1.58410677       1.64389412       1.75461140       0.02915504
C        0.25779765       0.33114378      -2.25512368        0       0.89283481      -0.41473481      -0.56501461      -3.48138199       0.01088567      -0.46501007       0.03778684
H        0.20215894       1.22531271       2.72506021        0      -0.21183128       0.30621781      -0.48852723       0.08942788       0.29220191      -0.52463692       0.05469774
H       -1.15450125       0.33066990       1.98359868        0      -0.08947224       0.06108572      -0.20325740       0.68526839      -0.13117615       0.34455612       0.06109937
H        0.11309123      -0.41301677       2.97805191        0      -0.15773211       0.02242201       0.16431718       0.35594664      -1.38234510       0.07358386       0.06512638
H        0.54261274       1.35570198      -2.46572799        0      -0.02187137       0.03170479       0.39643819       0.30393396       0.12399534       0.27467207       0.05870907
H        0.41740962      -0.27744032      -3.11331646        0       0.11748354      -0.36459958       0.04328871       1.18964905      -0.80028680      -0.36946069       0.07064355
H       -0.92187423       0.29025914      -2.29725111        0       0.20926684      -0.15223164       0.18983931       1.55834088       0.41535847       0.51726033       0.03631725
12
Properties=species:S:1:pos:R:3:molID:I:1:momenta:R:3:forces:R:3:charge:R:1 Nmols=1 Comp=DMC(1) energy=-589.3372151017217 dipole="0.1762913915916436 0.42903214959224395 0.17880289243850733" free_energy=-589.3372151017217 pbc="F F F"
C       -0.13828659      -0.14642343       0.06446519        0       0.23763434      -1.13656700      -1.95796459      -1.10319350      -1.68524568      -3.99874167       0.50061675
O       -1.24693878      -0.54496214      -0.05001149        0       0.15879560       1.09496230      -0.85951312      -2.46022985       0.22550886       0.94025356      -0.46430216
O        0.58830105       0.06268509       1.05259890        0       0.02107082      -1.85615791       2.13306970       2.13005680       1.08145871       2.46093849      -0.23954549
O        0.62320526      -0.12433437      -1.02375762        0       0.24148413       0.72243052       0.60874489       2.72364890      -0.24544766       1.19989350      -0.30765360
C       -0.06981546       0.43305856       2.24598447        0      -0.82534330       1.29547515       0.64537156      -0.98275444      -0.46372548      -0.57483957       0.01243788
C        0.25566836       0.27174655      -2.28717915        0      -0.60930537      -0.34320280      -0.26753208      -2.23363627       1.30242101       0.51984877       0.03665959
H        0.13007905       1.49045100       2.34733495        0       0.20904048      -0.21778230       0.01884109       0.51249040      -0.02560324       1.05638723       0.08687059
H       -1.14706080       0.35773800       2.08524615        0      -0.25279256       0.02654797       0.25330198      -0.32616393      -0.10998980      -0.03006550       0.07250440
H        0.18702148      -0.36572879       2.91730358        0       0.50477826       0.27033496       0.06954605       0.39810824       0.57181083       1.11382771       0.09560527
H        0.56229313       1.33253403      -2.28864132        0       0.06868737      -0.07043934      -0.39377261      -0.08669258      -0.15849153      -0.92927336       0.05594823
H        0.84346614      -0.37786907      -2.88121374        0       0.45005729       0.24958920       0.22856160      -0.03077269      -0.21689135      -1.28980004       0.09126737
H       -0.89199792       0.23435797      -2.35879235        0      -0.20410707      -0.03519075      -0.47865446       1.45913892      -0.27580468      -0.46842912       0.05959117
12
Properties=species:S:1:pos:R:3:molID:I:1:momenta:R:3:forces:R:3:charge:R:1 Nmols=1 Comp=DMC(1) energy=-589.0707986699546 dipole="0.16060541696742456 0.3541082238128271 -0.307857711913856" free_energy=-589.0707986699546 pbc="F F F"
C       -0.12625831      -0.22830868      -0.07175620        0       0.08166818      -0.90732429      -0.51602241      -1.99044049      -0.02783696       3.79235324       0.47388103
O       -1.30721062      -0.50268514      -0.09678011        0      -1.68693997       0.57507740      -0.48285216       1.55806621       0.56986569       0.11400450      -0.41758982
O        0.59417085      -0.02743425       1.20359510        0      -0.53609638      -1.08366297       1.96616338      -1.82332949       0.16107705      -2.39430604      -0.33344911
O        0.68807353      -0.07582319      -1.03274792        0       1.91169746       0.90511746      -0.75476589       1.02568140       0.58990854      -1.39640889      -0.18942377
C       -0.13399955       0.50329455       2.32937323        0       0.34657955       0.51721229       1.41181571       3.47010638      -0.04874285       0.95853278       0.02990969
C        0.24782923       0.26884694      -2.32842861        0       1.16607581      -0.03638861      -1.43593215       0.29439373      -0.52034375      -2.97263741       0.02535024
H        0.20317079       1.52835690       2.57182447        0      -0.35496384       0.03974017      -0.03193083      -0.74891117       0.39355316      -1.20668765       0.05095989
H       -1.17293185       0.36056779       2.37242271        0      -0.05881327      -0.03029775       0.07851861      -0.95182782      -0.34843659      -0.19867588       0.07497497
H        0.46843986       0.07188420       3.16196463        0      -0.15549993       0.33809607       0.26542963      -1.05792567      -0.84434000      -0.05722945       0.06709370
H        0.52295984       1.27649872      -2.65055393        0      -0.25432956       0.03185331      -0.02078784      -0.46669877       0.52641912       1.04321257       0.07357248
H        0.84961029      -0.25039308      -3.08343078        0      -0.24551352       0.00628495      -0.33125525       0.86063666      -0.78794643       0.45117240       0.06928507
H       -0.72043910      -0.00044938      -2.82056718        0      -0.21386452      -0.35570804      -0.14838081      -0.16975095       0.33682303       1.86666984       0.07543563
12
Properties=species:S:1:pos:R:3:molID:I:1:momenta:R:3:forces:R:3:charge:R:1 Nmols=1 Comp=DMC(1) energy=-588.862763007318 dipole="-0.082777590378288 0.2547596659235333 -0.07847963116454833" free_energy=-588.862763007318 pbc="F F F"
C       -0.17098280      -0.25787223      -0.04776424        0       0.00599326       0.54501128       1.17635800       3.60184236       1.91723974       1.41927670       0.47074188
O       -1.33095727      -0.43856948      -0.12002167        0      -0.34335789       0.82192861      -0.51377603      -0.38291145      -0.17192478      -0.69455752      -0.35318233
O        0.51673680      -0.07380658       1.23289704        0      -1.62875660      -0.86432373      -1.01969047      -0.39272767       0.03081910      -1.52917936      -0.31769208
O        0.80602592      -0.02302363      -1.08338313        0       1.91315195       0.59060322       0.23981112      -1.32158325      -0.60258907       2.08190667      -0.30699892
C       -0.10838031       0.51661487       2.44185696        0      -0.60932359       0.31337423       0.74781421      -2.05098735      -0.06409132      -2.68562094       0.02531839
C        0.33327549       0.21088976      -2.47033108        0       0.78382853      -0.62562546      -1.07275569      -1.12990076      -0.01429838       3.11181695       0.01082452
H       -0.21487591       1.62115125       2.26437906        0      -0.05357688      -0.30855026      -0.23918778       1.29106848      -0.73040292       0.80793046       0.06908930
H       -1.17644495       0.28990146       2.37574105        0      -0.03024436      -0.21608560      -0.08948779      -0.45204963      -0.59998654      -0.04916340       0.05715824
H        0.17627766       0.04933645       3.38206586        0      -0.11557086      -0.00216863       0.16182040       0.91554835       0.53960340      -0.51901172       0.09183380
H        0.31526306       1.31988886      -2.52532923        0      -0.20198198      -0.20506344      -0.02798103       0.15388682      -0.79097126      -0.65283267       0.07752200
H        0.92477802      -0.35526155      -3.18010523        0       0.29356927      -0.03302877       0.02042441       0.01262217       0.27388789       0.20357373       0.08862176
H       -0.67225495      -0.18708595      -2.27072127        0      -0.01373085      -0.01607143       0.61665066      -0.24480808       0.21271414      -1.49413889       0.08676345
12
Properties=species:S:1:pos:R:3:molID:I:1:momenta:R:3:forces:R:3:charge:R:1 Nmols=1 Comp=DMC(1) energy=-589.2819719342103 dipole="0.14482723684874585 0.34572560847696887 0.23056236846305828" free_energy=-589.2819719342103 pbc="F F F"
C       -0.09960787      -0.15736247       0.03329213        0       0.53275169       1.63097825      -0.19228826      -3.14714485      -0.63353771      -3.90292968       0.47833894
O       -1.29234323      -0.41043233      -0.17559817        0       1.68257176       0.15786470      -0.69370669       2.41831108       0.88898287      -0.22212550      -0.45775718
O        0.41315925      -0.12638717       1.18025602        0      -1.34028145      -0.59287170       0.08938709       2.52701920       0.77214005       3.23498905      -0.24996107
O        0.86088185       0.02980377      -1.02398830        0      -0.38279879       0.88611190       1.25970492      -2.53537770       0.22912446       0.20876581      -0.30802028